 Entering Gaussian System, Link 0=g16
 Input=IZZYABADQVQHLC-UHFFFAOYSA-N_conf_0.gjf
 Output=IZZYABADQVQHLC-UHFFFAOYSA-N_conf_0.log
 Initial command:
 /opt/export/g16/l1.exe "/tmp/Gau-1154847.inp" -scrdir="/tmp/"
 Entering Link 1 = /opt/export/g16/l1.exe PID=   1154851.
  
 Copyright (c) 1988,1990,1992,1993,1995,1998,2003,2009,2016,
            Gaussian, Inc.  All Rights Reserved.
  
 This is part of the Gaussian(R) 16 program.  It is based on
 the Gaussian(R) 09 system (copyright 2009, Gaussian, Inc.),
 the Gaussian(R) 03 system (copyright 2003, Gaussian, Inc.),
 the Gaussian(R) 98 system (copyright 1998, Gaussian, Inc.),
 the Gaussian(R) 94 system (copyright 1995, Gaussian, Inc.),
 the Gaussian 92(TM) system (copyright 1992, Gaussian, Inc.),
 the Gaussian 90(TM) system (copyright 1990, Gaussian, Inc.),
 the Gaussian 88(TM) system (copyright 1988, Gaussian, Inc.),
 the Gaussian 86(TM) system (copyright 1986, Carnegie Mellon
 University), and the Gaussian 82(TM) system (copyright 1983,
 Carnegie Mellon University). Gaussian is a federally registered
 trademark of Gaussian, Inc.
  
 This software contains proprietary and confidential information,
 including trade secrets, belonging to Gaussian, Inc.
  
 This software is provided under written license and may be
 used, copied, transmitted, or stored only in accord with that
 written license.
  
 The following legend is applicable only to US Government
 contracts under FAR:
  
                    RESTRICTED RIGHTS LEGEND
  
 Use, reproduction and disclosure by the US Government is
 subject to restrictions as set forth in subparagraphs (a)
 and (c) of the Commercial Computer Software - Restricted
 Rights clause in FAR 52.227-19.
  
 Gaussian, Inc.
 340 Quinnipiac St., Bldg. 40, Wallingford CT 06492
  
  
 ---------------------------------------------------------------
 Warning -- This program may not be used in any manner that
 competes with the business of Gaussian, Inc. or will provide
 assistance to any competitor of Gaussian, Inc.  The licensee
 of this program is prohibited from giving any competitor of
 Gaussian, Inc. access to this program.  By using this program,
 the user acknowledges that Gaussian, Inc. is engaged in the
 business of creating and licensing software in the field of
 computational chemistry and represents and warrants to the
 licensee that it is not a competitor of Gaussian, Inc. and that
 it will not use this program in any manner prohibited above.
 ---------------------------------------------------------------
  

 Cite this work as:
 Gaussian 16, Revision A.03,
 M. J. Frisch, G. W. Trucks, H. B. Schlegel, G. E. Scuseria, 
 M. A. Robb, J. R. Cheeseman, G. Scalmani, V. Barone, 
 G. A. Petersson, H. Nakatsuji, X. Li, M. Caricato, A. V. Marenich, 
 J. Bloino, B. G. Janesko, R. Gomperts, B. Mennucci, H. P. Hratchian, 
 J. V. Ortiz, A. F. Izmaylov, J. L. Sonnenberg, D. Williams-Young, 
 F. Ding, F. Lipparini, F. Egidi, J. Goings, B. Peng, A. Petrone, 
 T. Henderson, D. Ranasinghe, V. G. Zakrzewski, J. Gao, N. Rega, 
 G. Zheng, W. Liang, M. Hada, M. Ehara, K. Toyota, R. Fukuda, 
 J. Hasegawa, M. Ishida, T. Nakajima, Y. Honda, O. Kitao, H. Nakai, 
 T. Vreven, K. Throssell, J. A. Montgomery, Jr., J. E. Peralta, 
 F. Ogliaro, M. J. Bearpark, J. J. Heyd, E. N. Brothers, K. N. Kudin, 
 V. N. Staroverov, T. A. Keith, R. Kobayashi, J. Normand, 
 K. Raghavachari, A. P. Rendell, J. C. Burant, S. S. Iyengar, 
 J. Tomasi, M. Cossi, J. M. Millam, M. Klene, C. Adamo, R. Cammi, 
 J. W. Ochterski, R. L. Martin, K. Morokuma, O. Farkas, 
 J. B. Foresman, and D. J. Fox, Gaussian, Inc., Wallingford CT, 2016.
 
 ******************************************
 Gaussian 16:  ES64L-G16RevA.03 25-Dec-2016
                28-Jan-2024 
 ******************************************
 %nprocshared=3
 Will use up to    3 processors via shared memory.
 %mem=6GB
 %Chk=IZZYABADQVQHLC-UHFFFAOYSA-N_conf_0_0.chk
 --------------------------------
 # opt=CalcFc APFD/6-31G* scf=xqc
 --------------------------------
 1/10=4,18=20,19=15,26=3,38=1/1,3;
 2/9=110,12=2,17=6,18=5,40=1/2;
 3/5=1,6=6,7=1,11=2,25=1,30=1,71=2,74=-44,140=1/1,2,3;
 4//1;
 5/5=2,8=3,13=1,38=5/2,8;
 8/6=4,10=90,11=11/1;
 11/6=1,8=1,9=11,15=111,16=1/1,2,10;
 10/6=1,13=1/2;
 6/7=2,8=2,9=2,10=2,28=1/1;
 7/10=1,18=20,25=1/1,2,3,16;
 1/10=4,18=20,19=15,26=3/3(2);
 2/9=110/2;
 99//99;
 2/9=110/2;
 3/5=1,6=6,7=1,11=2,25=1,30=1,71=1,74=-44/1,2,3;
 4/5=5,16=3,69=1/1;
 5/5=2,8=3,13=1,38=5/2,8;
 7//1,2,3,16;
 1/18=20,19=15,26=3/3(-5);
 2/9=110/2;
 6/7=2,8=2,9=2,10=2,19=2,28=1/1;
 99/9=1/99;
 ----------------------------------
 IZZYABADQVQHLC-UHFFFAOYSA-N_conf_0
 ----------------------------------
 Symbolic Z-matrix:
 Charge =  0 Multiplicity = 1
 O                     3.4992   -0.1283    1.73306 
 S                     3.08097   0.14644   0.3743 
 C                     1.31791   0.0438    0.3271 
 C                     0.70935  -1.1704    0.00434 
 C                    -0.68264  -1.24031  -0.0588 
 C                    -1.46298  -0.10039   0.18211 
 C                    -2.9613   -0.18871   0.14693 
 C                    -0.83352   1.10917   0.5103 
 C                     0.55838   1.18829   0.57498 
 F                     3.45601   1.67012   0.10468 
 O                     3.60298  -0.58239  -0.76394 
 H                     1.30666  -2.05736  -0.19621 
 H                    -1.15786  -2.18936  -0.30023 
 H                    -3.29111  -0.94387  -0.57428 
 H                    -3.4016    0.76614  -0.15898 
 H                    -3.34333  -0.45393   1.13748 
 H                    -1.42888   1.99684   0.71657 
 H                     1.03175   2.13421   0.8264 
 

 GradGradGradGradGradGradGradGradGradGradGradGradGradGradGradGradGradGrad
 Berny optimization.
 Initialization pass.
                           ----------------------------
                           !    Initial Parameters    !
                           ! (Angstroms and Degrees)  !
 --------------------------                            --------------------------
 ! Name  Definition              Value          Derivative Info.                !
 --------------------------------------------------------------------------------
 ! R1    R(1,2)                  1.448          calculate D2E/DX2 analytically  !
 ! R2    R(2,3)                  1.7667         calculate D2E/DX2 analytically  !
 ! R3    R(2,10)                 1.5922         calculate D2E/DX2 analytically  !
 ! R4    R(2,11)                 1.4489         calculate D2E/DX2 analytically  !
 ! R5    R(3,4)                  1.396          calculate D2E/DX2 analytically  !
 ! R6    R(3,9)                  1.3958         calculate D2E/DX2 analytically  !
 ! R7    R(4,5)                  1.3952         calculate D2E/DX2 analytically  !
 ! R8    R(4,12)                 1.088          calculate D2E/DX2 analytically  !
 ! R9    R(5,6)                  1.4023         calculate D2E/DX2 analytically  !
 ! R10   R(5,13)                 1.0885         calculate D2E/DX2 analytically  !
 ! R11   R(6,7)                  1.5013         calculate D2E/DX2 analytically  !
 ! R12   R(6,8)                  1.4025         calculate D2E/DX2 analytically  !
 ! R13   R(7,14)                 1.0951         calculate D2E/DX2 analytically  !
 ! R14   R(7,15)                 1.0951         calculate D2E/DX2 analytically  !
 ! R15   R(7,16)                 1.0943         calculate D2E/DX2 analytically  !
 ! R16   R(8,9)                  1.3956         calculate D2E/DX2 analytically  !
 ! R17   R(8,17)                 1.0886         calculate D2E/DX2 analytically  !
 ! R18   R(9,18)                 1.0872         calculate D2E/DX2 analytically  !
 ! A1    A(1,2,3)              107.5954         calculate D2E/DX2 analytically  !
 ! A2    A(1,2,10)             105.8102         calculate D2E/DX2 analytically  !
 ! A3    A(1,2,11)             122.5262         calculate D2E/DX2 analytically  !
 ! A4    A(3,2,10)             106.6276         calculate D2E/DX2 analytically  !
 ! A5    A(3,2,11)             108.0188         calculate D2E/DX2 analytically  !
 ! A6    A(10,2,11)            105.2776         calculate D2E/DX2 analytically  !
 ! A7    A(2,3,4)              119.4559         calculate D2E/DX2 analytically  !
 ! A8    A(2,3,9)              119.3841         calculate D2E/DX2 analytically  !
 ! A9    A(4,3,9)              121.1332         calculate D2E/DX2 analytically  !
 ! A10   A(3,4,5)              119.274          calculate D2E/DX2 analytically  !
 ! A11   A(3,4,12)             120.8212         calculate D2E/DX2 analytically  !
 ! A12   A(5,4,12)             119.9048         calculate D2E/DX2 analytically  !
 ! A13   A(4,5,6)              120.4443         calculate D2E/DX2 analytically  !
 ! A14   A(4,5,13)             119.2954         calculate D2E/DX2 analytically  !
 ! A15   A(6,5,13)             120.2601         calculate D2E/DX2 analytically  !
 ! A16   A(5,6,7)              120.2329         calculate D2E/DX2 analytically  !
 ! A17   A(5,6,8)              119.441          calculate D2E/DX2 analytically  !
 ! A18   A(7,6,8)              120.274          calculate D2E/DX2 analytically  !
 ! A19   A(6,7,14)             110.8895         calculate D2E/DX2 analytically  !
 ! A20   A(6,7,15)             110.8864         calculate D2E/DX2 analytically  !
 ! A21   A(6,7,16)             109.966          calculate D2E/DX2 analytically  !
 ! A22   A(14,7,15)            107.2306         calculate D2E/DX2 analytically  !
 ! A23   A(14,7,16)            108.8977         calculate D2E/DX2 analytically  !
 ! A24   A(15,7,16)            108.8951         calculate D2E/DX2 analytically  !
 ! A25   A(6,8,9)              120.4875         calculate D2E/DX2 analytically  !
 ! A26   A(6,8,17)             120.1424         calculate D2E/DX2 analytically  !
 ! A27   A(9,8,17)             119.3702         calculate D2E/DX2 analytically  !
 ! A28   A(3,9,8)              119.2084         calculate D2E/DX2 analytically  !
 ! A29   A(3,9,18)             121.1679         calculate D2E/DX2 analytically  !
 ! A30   A(8,9,18)             119.6209         calculate D2E/DX2 analytically  !
 ! D1    D(1,2,3,4)            -92.0153         calculate D2E/DX2 analytically  !
 ! D2    D(1,2,3,9)             89.8469         calculate D2E/DX2 analytically  !
 ! D3    D(10,2,3,4)           154.8431         calculate D2E/DX2 analytically  !
 ! D4    D(10,2,3,9)           -23.2947         calculate D2E/DX2 analytically  !
 ! D5    D(11,2,3,4)            42.1174         calculate D2E/DX2 analytically  !
 ! D6    D(11,2,3,9)          -136.0203         calculate D2E/DX2 analytically  !
 ! D7    D(2,3,4,5)           -178.6897         calculate D2E/DX2 analytically  !
 ! D8    D(2,3,4,12)             1.3711         calculate D2E/DX2 analytically  !
 ! D9    D(9,3,4,5)             -0.5854         calculate D2E/DX2 analytically  !
 ! D10   D(9,3,4,12)           179.4754         calculate D2E/DX2 analytically  !
 ! D11   D(2,3,9,8)            178.7228         calculate D2E/DX2 analytically  !
 ! D12   D(2,3,9,18)            -1.8946         calculate D2E/DX2 analytically  !
 ! D13   D(4,3,9,8)              0.6171         calculate D2E/DX2 analytically  !
 ! D14   D(4,3,9,18)           179.9997         calculate D2E/DX2 analytically  !
 ! D15   D(3,4,5,6)              0.8154         calculate D2E/DX2 analytically  !
 ! D16   D(3,4,5,13)          -179.3658         calculate D2E/DX2 analytically  !
 ! D17   D(12,4,5,6)          -179.2447         calculate D2E/DX2 analytically  !
 ! D18   D(12,4,5,13)            0.574          calculate D2E/DX2 analytically  !
 ! D19   D(4,5,6,7)           -178.4591         calculate D2E/DX2 analytically  !
 ! D20   D(4,5,6,8)             -1.0787         calculate D2E/DX2 analytically  !
 ! D21   D(13,5,6,7)             1.7239         calculate D2E/DX2 analytically  !
 ! D22   D(13,5,6,8)           179.1042         calculate D2E/DX2 analytically  !
 ! D23   D(5,6,7,14)           -31.8498         calculate D2E/DX2 analytically  !
 ! D24   D(5,6,7,15)          -150.8618         calculate D2E/DX2 analytically  !
 ! D25   D(5,6,7,16)            88.6468         calculate D2E/DX2 analytically  !
 ! D26   D(8,6,7,14)           150.7918         calculate D2E/DX2 analytically  !
 ! D27   D(8,6,7,15)            31.7798         calculate D2E/DX2 analytically  !
 ! D28   D(8,6,7,16)           -88.7116         calculate D2E/DX2 analytically  !
 ! D29   D(5,6,8,9)              1.1119         calculate D2E/DX2 analytically  !
 ! D30   D(5,6,8,17)          -178.9337         calculate D2E/DX2 analytically  !
 ! D31   D(7,6,8,9)            178.4911         calculate D2E/DX2 analytically  !
 ! D32   D(7,6,8,17)            -1.5544         calculate D2E/DX2 analytically  !
 ! D33   D(6,8,9,3)             -0.88           calculate D2E/DX2 analytically  !
 ! D34   D(6,8,9,18)           179.7277         calculate D2E/DX2 analytically  !
 ! D35   D(17,8,9,3)           179.1652         calculate D2E/DX2 analytically  !
 ! D36   D(17,8,9,18)           -0.2271         calculate D2E/DX2 analytically  !
 --------------------------------------------------------------------------------
 Trust Radius=3.00D-01 FncErr=1.00D-07 GrdErr=1.00D-06 EigMax=2.50D+02 EigMin=1.00D-04
 Number of steps in this run=     94 maximum allowed number of steps=    108.
 GradGradGradGradGradGradGradGradGradGradGradGradGradGradGradGradGradGrad

                          Input orientation:                          
 ---------------------------------------------------------------------
 Center     Atomic      Atomic             Coordinates (Angstroms)
 Number     Number       Type             X           Y           Z
 ---------------------------------------------------------------------
      1          8           0        3.499196   -0.128302    1.733063
      2         16           0        3.080970    0.146440    0.374301
      3          6           0        1.317910    0.043795    0.327097
      4          6           0        0.709353   -1.170395    0.004337
      5          6           0       -0.682641   -1.240308   -0.058796
      6          6           0       -1.462979   -0.100387    0.182107
      7          6           0       -2.961298   -0.188708    0.146935
      8          6           0       -0.833518    1.109169    0.510304
      9          6           0        0.558381    1.188289    0.574978
     10          9           0        3.456010    1.670120    0.104685
     11          8           0        3.602979   -0.582392   -0.763938
     12          1           0        1.306662   -2.057359   -0.196214
     13          1           0       -1.157858   -2.189363   -0.300228
     14          1           0       -3.291106   -0.943867   -0.574281
     15          1           0       -3.401599    0.766144   -0.158977
     16          1           0       -3.343327   -0.453933    1.137482
     17          1           0       -1.428883    1.996844    0.716571
     18          1           0        1.031747    2.134214    0.826400
 ---------------------------------------------------------------------
                    Distance matrix (angstroms):
                    1          2          3          4          5
     1  O    0.000000
     2  S    1.447974   0.000000
     3  C    2.600839   1.766676   0.000000
     4  C    3.443497   2.737789   1.395985   0.000000
     5  C    4.683490   4.034279   2.408327   1.395178   0.000000
     6  C    5.198982   4.554704   2.788396   2.428074   1.402277
     7  C    6.652626   6.055825   4.289305   3.802332   2.518028
     8  C    4.668927   4.033430   2.407743   2.798726   2.422124
     9  C    3.423881   2.736635   1.395778   2.431423   2.799981
    10  F    2.426479   1.592152   2.695528   3.952558   5.062188
    11  O    2.540075   1.448888   2.608449   3.051075   4.392791
    12  H    3.500082   2.886240   2.165370   1.087981   2.154944
    13  H    5.483648   4.886576   3.392633   2.148845   1.088497
    14  H    7.217838   6.533906   4.799061   4.048431   2.675387
    15  H    7.211159   6.533920   4.799148   4.547173   3.380624
    16  H    6.876109   6.497267   4.757267   4.268671   3.021377
    17  H    5.462184   4.886708   3.392781   3.887253   3.411338
    18  H    3.468330   2.890493   2.168189   3.420550   3.887171
                    6          7          8          9         10
     6  C    0.000000
     7  C    1.501332   0.000000
     8  C    1.402484   2.518724   0.000000
     9  C    2.429183   3.803615   1.395645   0.000000
    10  F    5.228493   6.681233   4.345025   2.974826   0.000000
    11  O    5.176027   6.638856   4.916053   3.767968   2.418660
    12  H    3.412298   4.671733   3.886700   3.418902   4.313274
    13  H    2.165540   2.730379   3.412107   3.888444   6.028875
    14  H    2.150728   1.095076   3.380980   4.548125   7.267565
    15  H    2.150689   1.095075   2.675938   4.049486   6.921957
    16  H    2.138562   1.094292   3.022546   4.270437   7.197865
    17  H    2.164531   2.729363   1.088564   2.150123   4.933896
    18  H    3.410603   4.669266   2.151707   1.087226   2.571635
                   11         12         13         14         15
    11  O    0.000000
    12  H    2.787634   0.000000
    13  H    5.046082   2.470244   0.000000
    14  H    6.906160   4.745764   2.485380   0.000000
    15  H    7.158815   5.490107   3.713401   1.763186   0.000000
    16  H    7.202990   5.096285   3.139267   1.781262   1.781233
    17  H    5.844998   4.975233   4.316441   3.712406   2.484515
    18  H    4.064524   4.323262   4.975638   5.488493   4.743115
                   16         17         18
    16  H    0.000000
    17  H    3.138243   0.000000
    18  H    5.092794   2.466908   0.000000
 Stoichiometry    C7H7FO2S
 Framework group  C1[X(C7H7FO2S)]
 Deg. of freedom    48
 Full point group                 C1      NOp   1
 Largest Abelian subgroup         C1      NOp   1
 Largest concise Abelian subgroup C1      NOp   1
                         Standard orientation:                         
 ---------------------------------------------------------------------
 Center     Atomic      Atomic             Coordinates (Angstroms)
 Number     Number       Type             X           Y           Z
 ---------------------------------------------------------------------
      1          8           0        2.332067   -0.085774    1.424841
      2         16           0        1.893171   -0.106212    0.045137
      3          6           0        0.127219   -0.055631    0.045674
      4          6           0       -0.593782   -1.250934    0.032188
      5          6           0       -1.987981   -1.206413    0.004831
      6          6           0       -2.659099    0.024448   -0.026202
      7          6           0       -4.159802    0.067559   -0.020686
      8          6           0       -1.917496    1.214658   -0.006580
      9          6           0       -0.522550    1.179414    0.020057
     10          9           0        2.388129    1.268270   -0.587923
     11          8           0        2.311925   -1.130179   -0.890498
     12          1           0       -0.081857   -2.210884    0.043735
     13          1           0       -2.550723   -2.138157    0.004814
     14          1           0       -4.577376   -0.804512   -0.534801
     15          1           0       -4.526716    0.957931   -0.542032
     16          1           0       -4.529406    0.082438    1.009191
     17          1           0       -2.427231    2.176481   -0.012774
     18          1           0        0.038419    2.110685    0.030547
 ---------------------------------------------------------------------
 Rotational constants (GHZ):           2.5782317           0.5534796           0.5042617
 Standard basis: 6-31G(d) (6D, 7F)
 There are   183 symmetry adapted cartesian basis functions of A   symmetry.
 There are   183 symmetry adapted basis functions of A   symmetry.
   183 basis functions,   360 primitive gaussians,   183 cartesian basis functions
    45 alpha electrons       45 beta electrons
       nuclear repulsion energy       725.3461364098 Hartrees.
 NAtoms=   18 NActive=   18 NUniq=   18 SFac= 1.00D+00 NAtFMM=   60 NAOKFM=F Big=F
 Integral buffers will be    131072 words long.
 Raffenetti 2 integral format.
 Two-electron integral symmetry is turned on.
 R6APFD:  NTU= -4 IXU= 1 FactS= 1.050
 Nuclear repulsion after empirical dispersion term =      725.3316682514 Hartrees.
 One-electron integrals computed using PRISM.
 NBasis=   183 RedAO= T EigKep=  4.66D-04  NBF=   183
 NBsUse=   183 1.00D-06 EigRej= -1.00D+00 NBFU=   183
 ExpMin= 1.17D-01 ExpMax= 2.19D+04 ExpMxC= 3.30D+03 IAcc=3 IRadAn=         5 AccDes= 0.00D+00
 Harris functional with IExCor= 3731 and IRadAn=       5 diagonalized for initial guess.
 HarFok:  IExCor= 3731 AccDes= 0.00D+00 IRadAn=         5 IDoV= 1 UseB2=F ITyADJ=14
 ICtDFT=  3500011 ScaDFX=  1.000000  1.000000  1.000000  1.000000
 FoFCou: FMM=F IPFlag=           0 FMFlag=      100000 FMFlg1=           0
         NFxFlg=           0 DoJE=T BraDBF=F KetDBF=T FulRan=T
         wScrn=  0.000000 ICntrl=       500 IOpCl=  0 I1Cent=   200000004 NGrid=           0
         NMat0=    1 NMatS0=      1 NMatT0=    0 NMatD0=    1 NMtDS0=    0 NMtDT0=    0
 Petite list used in FoFCou.
 Keep R1 ints in memory in canonical form, NReq=144849755.
 Requested convergence on RMS density matrix=1.00D-08 within  32 cycles.
 Requested convergence on MAX density matrix=1.00D-06.
 Requested convergence on             energy=1.00D-06.
 No special actions if energy rises.
 Integral accuracy reduced to 1.0D-05 until final iterations.
 Initial convergence to 1.0D-05 achieved.  Increase integral accuracy.
 SCF Done:  E(RAPFD) =  -918.868788317     A.U. after   15 cycles
            NFock= 15  Conv=0.36D-08     -V/T= 2.0064
 QCSCF skips out because SCF is already converged.
 DoSCS=F DFT=T ScalE2(SS,OS)=  1.000000  1.000000
 Range of M.O.s used for correlation:     1   183
 NBasis=   183 NAE=    45 NBE=    45 NFC=     0 NFV=     0
 NROrb=    183 NOA=    45 NOB=    45 NVA=   138 NVB=   138
 R6APFD:  NTU= -4 IXU= 1 FactS= 1.050
 Symmetrizing basis deriv contribution to polar:
 IMax=3 JMax=2 DiffMx= 0.00D+00
 G2DrvN: will do    19 centers at a time, making    1 passes.
 Calling FoFCou, ICntrl=  3107 FMM=F I1Cent=   0 AccDes= 0.00D+00.
 End of G2Drv F.D. properties file   721 does not exist.
 End of G2Drv F.D. properties file   722 does not exist.
 End of G2Drv F.D. properties file   788 does not exist.
          IDoAtm=111111111111111111
          Differentiating once with respect to nuclear coordinates.
 Keep R1 ints in memory in canonical form, NReq=144857234.
          There are    57 degrees of freedom in the 1st order CPHF.  IDoFFX=6 NUNeed=     0.
     51 vectors produced by pass  0 Test12= 1.09D-14 1.75D-09 XBig12= 1.71D-01 1.94D-01.
 AX will form    51 AO Fock derivatives at one time.
     51 vectors produced by pass  1 Test12= 1.09D-14 1.75D-09 XBig12= 2.94D-02 5.72D-02.
     51 vectors produced by pass  2 Test12= 1.09D-14 1.75D-09 XBig12= 4.65D-04 4.18D-03.
     51 vectors produced by pass  3 Test12= 1.09D-14 1.75D-09 XBig12= 3.20D-06 3.15D-04.
     51 vectors produced by pass  4 Test12= 1.09D-14 1.75D-09 XBig12= 1.15D-08 1.79D-05.
     45 vectors produced by pass  5 Test12= 1.09D-14 1.75D-09 XBig12= 1.61D-11 6.20D-07.
     11 vectors produced by pass  6 Test12= 1.09D-14 1.75D-09 XBig12= 1.97D-14 1.88D-08.
 InvSVY:  IOpt=1 It=  1 EMax= 3.33D-16
 Solved reduced A of dimension   311 with    57 vectors.
 End of Minotr F.D. properties file   721 does not exist.
 End of Minotr F.D. properties file   722 does not exist.
 End of Minotr F.D. properties file   788 does not exist.

 **********************************************************************

            Population analysis using the SCF density.

 **********************************************************************

 Orbital symmetries:
       Occupied  (A) (A) (A) (A) (A) (A) (A) (A) (A) (A) (A) (A)
                 (A) (A) (A) (A) (A) (A) (A) (A) (A) (A) (A) (A)
                 (A) (A) (A) (A) (A) (A) (A) (A) (A) (A) (A) (A)
                 (A) (A) (A) (A) (A) (A) (A) (A) (A)
       Virtual   (A) (A) (A) (A) (A) (A) (A) (A) (A) (A) (A) (A)
                 (A) (A) (A) (A) (A) (A) (A) (A) (A) (A) (A) (A)
                 (A) (A) (A) (A) (A) (A) (A) (A) (A) (A) (A) (A)
                 (A) (A) (A) (A) (A) (A) (A) (A) (A) (A) (A) (A)
                 (A) (A) (A) (A) (A) (A) (A) (A) (A) (A) (A) (A)
                 (A) (A) (A) (A) (A) (A) (A) (A) (A) (A) (A) (A)
                 (A) (A) (A) (A) (A) (A) (A) (A) (A) (A) (A) (A)
                 (A) (A) (A) (A) (A) (A) (A) (A) (A) (A) (A) (A)
                 (A) (A) (A) (A) (A) (A) (A) (A) (A) (A) (A) (A)
                 (A) (A) (A) (A) (A) (A) (A) (A) (A) (A) (A) (A)
                 (A) (A) (A) (A) (A) (A) (A) (A) (A) (A) (A) (A)
                 (A) (A) (A) (A) (A) (A)
 The electronic state is 1-A.
 Alpha  occ. eigenvalues --  -89.23400 -24.79753 -19.20855 -19.20769 -10.27540
 Alpha  occ. eigenvalues --  -10.25596 -10.25528 -10.25456 -10.24416 -10.24355
 Alpha  occ. eigenvalues --  -10.22691  -8.21230  -6.16206  -6.15798  -6.15719
 Alpha  occ. eigenvalues --   -1.28935  -1.13061  -1.04735  -0.91103  -0.83190
 Alpha  occ. eigenvalues --   -0.79407  -0.75103  -0.68804  -0.65486  -0.62749
 Alpha  occ. eigenvalues --   -0.59125  -0.53743  -0.51718  -0.50673  -0.49951
 Alpha  occ. eigenvalues --   -0.48768  -0.46236  -0.45628  -0.45119  -0.45037
 Alpha  occ. eigenvalues --   -0.41657  -0.40365  -0.39496  -0.38426  -0.37895
 Alpha  occ. eigenvalues --   -0.34761  -0.33872  -0.32895  -0.28956  -0.27872
 Alpha virt. eigenvalues --   -0.04496  -0.03103   0.01473   0.06587   0.09310
 Alpha virt. eigenvalues --    0.10616   0.11425   0.12274   0.13469   0.16061
 Alpha virt. eigenvalues --    0.16162   0.17104   0.19044   0.19364   0.21329
 Alpha virt. eigenvalues --    0.26077   0.28781   0.30923   0.31342   0.34041
 Alpha virt. eigenvalues --    0.36656   0.37894   0.40234   0.44726   0.49377
 Alpha virt. eigenvalues --    0.51271   0.53249   0.55448   0.56569   0.57094
 Alpha virt. eigenvalues --    0.57754   0.57954   0.58933   0.61042   0.61107
 Alpha virt. eigenvalues --    0.63781   0.69100   0.71236   0.71950   0.73814
 Alpha virt. eigenvalues --    0.76402   0.78960   0.79862   0.80791   0.81643
 Alpha virt. eigenvalues --    0.83823   0.84288   0.86327   0.87551   0.88970
 Alpha virt. eigenvalues --    0.89905   0.90297   0.92138   0.95782   0.97513
 Alpha virt. eigenvalues --    0.99625   1.01025   1.03148   1.03872   1.05855
 Alpha virt. eigenvalues --    1.09819   1.10769   1.14910   1.16155   1.17308
 Alpha virt. eigenvalues --    1.18527   1.22625   1.26504   1.29237   1.31597
 Alpha virt. eigenvalues --    1.33628   1.35981   1.37349   1.39603   1.42742
 Alpha virt. eigenvalues --    1.43843   1.44184   1.47830   1.48166   1.53215
 Alpha virt. eigenvalues --    1.62043   1.74951   1.75405   1.77301   1.78683
 Alpha virt. eigenvalues --    1.79434   1.80090   1.81473   1.82539   1.83192
 Alpha virt. eigenvalues --    1.84952   1.85327   1.87223   1.87675   1.90548
 Alpha virt. eigenvalues --    1.92081   1.95182   1.97550   1.98534   2.07061
 Alpha virt. eigenvalues --    2.07507   2.10824   2.11497   2.13229   2.14471
 Alpha virt. eigenvalues --    2.16944   2.20153   2.24309   2.27124   2.27614
 Alpha virt. eigenvalues --    2.30328   2.31130   2.34277   2.39497   2.54754
 Alpha virt. eigenvalues --    2.58425   2.61182   2.62622   2.70713   2.73365
 Alpha virt. eigenvalues --    2.74442   2.76489   2.83170   2.84298   2.86094
 Alpha virt. eigenvalues --    3.04455   3.36283   3.79330   3.87167   3.97555
 Alpha virt. eigenvalues --    4.09296   4.10783   4.13880   4.24024   4.31725
 Alpha virt. eigenvalues --    4.39875   4.53324   4.68715
          Condensed to atoms (all electrons):
               1          2          3          4          5          6
     1  O    8.145940   0.471264  -0.060934  -0.003098  -0.000066   0.000001
     2  S    0.471264  13.472853   0.215751  -0.023480   0.001979  -0.000358
     3  C   -0.060934   0.215751   5.323077   0.508088  -0.042094  -0.030908
     4  C   -0.003098  -0.023480   0.508088   4.927300   0.507060  -0.025737
     5  C   -0.000066   0.001979  -0.042094   0.507060   4.964440   0.555187
     6  C    0.000001  -0.000358  -0.030908  -0.025737   0.555187   4.656105
     7  C   -0.000000   0.000000   0.000399   0.006443  -0.060701   0.349086
     8  C   -0.000091   0.001377  -0.043871  -0.038540  -0.035712   0.560170
     9  C   -0.002069  -0.019696   0.494597  -0.027997  -0.041638  -0.026969
    10  F   -0.035478   0.201346  -0.034931   0.000563  -0.000012  -0.000002
    11  O   -0.040863   0.447609  -0.060531   0.002395   0.000440  -0.000006
    12  H   -0.000228  -0.001231  -0.041811   0.365188  -0.028708   0.003080
    13  H    0.000001  -0.000052   0.004766  -0.040318   0.368254  -0.040482
    14  H    0.000000   0.000000   0.000014   0.000178  -0.003440  -0.032123
    15  H    0.000000   0.000000   0.000016  -0.000169   0.003276  -0.032110
    16  H   -0.000000  -0.000000   0.000023  -0.000182  -0.002238  -0.028642
    17  H    0.000001  -0.000027   0.004593   0.000385   0.004718  -0.040331
    18  H   -0.000003  -0.001317  -0.045913   0.003445   0.000539   0.003145
               7          8          9         10         11         12
     1  O   -0.000000  -0.000091  -0.002069  -0.035478  -0.040863  -0.000228
     2  S    0.000000   0.001377  -0.019696   0.201346   0.447609  -0.001231
     3  C    0.000399  -0.043871   0.494597  -0.034931  -0.060531  -0.041811
     4  C    0.006443  -0.038540  -0.027997   0.000563   0.002395   0.365188
     5  C   -0.060701  -0.035712  -0.041638  -0.000012   0.000440  -0.028708
     6  C    0.349086   0.560170  -0.026969  -0.000002  -0.000006   0.003080
     7  C    5.252505  -0.060192   0.006438  -0.000000  -0.000000  -0.000153
     8  C   -0.060192   4.966386   0.498467   0.000315  -0.000066   0.000528
     9  C    0.006438   0.498467   4.955092   0.004979   0.000539   0.003594
    10  F   -0.000000   0.000315   0.004979   9.181676  -0.035431   0.000012
    11  O   -0.000000  -0.000066   0.000539  -0.035431   8.168287   0.003896
    12  H   -0.000153   0.000528   0.003594   0.000012   0.003896   0.483988
    13  H   -0.006818   0.004586   0.000486   0.000000   0.000002  -0.004201
    14  H    0.372351   0.003248  -0.000178  -0.000000  -0.000000  -0.000005
    15  H    0.372354  -0.003503   0.000157   0.000000  -0.000000   0.000002
    16  H    0.368672  -0.002310  -0.000142   0.000000   0.000000   0.000002
    17  H   -0.006929   0.367562  -0.040140   0.000001   0.000000   0.000014
    18  H   -0.000158  -0.027668   0.365150   0.005007   0.000050  -0.000127
              13         14         15         16         17         18
     1  O    0.000001   0.000000   0.000000  -0.000000   0.000001  -0.000003
     2  S   -0.000052   0.000000   0.000000  -0.000000  -0.000027  -0.001317
     3  C    0.004766   0.000014   0.000016   0.000023   0.004593  -0.045913
     4  C   -0.040318   0.000178  -0.000169  -0.000182   0.000385   0.003445
     5  C    0.368254  -0.003440   0.003276  -0.002238   0.004718   0.000539
     6  C   -0.040482  -0.032123  -0.032110  -0.028642  -0.040331   0.003145
     7  C   -0.006818   0.372351   0.372354   0.368672  -0.006929  -0.000158
     8  C    0.004586   0.003248  -0.003503  -0.002310   0.367562  -0.027668
     9  C    0.000486  -0.000178   0.000157  -0.000142  -0.040140   0.365150
    10  F    0.000000  -0.000000   0.000000   0.000000   0.000001   0.005007
    11  O    0.000002  -0.000000  -0.000000   0.000000   0.000000   0.000050
    12  H   -0.004201  -0.000005   0.000002   0.000002   0.000014  -0.000127
    13  H    0.524866   0.003996   0.000034   0.000418  -0.000138   0.000014
    14  H    0.003996   0.514369  -0.026389  -0.024689   0.000033   0.000002
    15  H    0.000034  -0.026389   0.514697  -0.024663   0.004008  -0.000005
    16  H    0.000418  -0.024689  -0.024663   0.506000   0.000431   0.000002
    17  H   -0.000138   0.000033   0.004008   0.000431   0.528040  -0.004291
    18  H    0.000014   0.000002  -0.000005   0.000002  -0.004291   0.495534
 Mulliken charges:
               1
     1  O   -0.474375
     2  S    1.233982
     3  C   -0.190332
     4  C   -0.161523
     5  C   -0.191284
     6  C    0.130896
     7  C   -0.593297
     8  C   -0.190688
     9  C   -0.170669
    10  F   -0.288045
    11  O   -0.486321
    12  H    0.216162
    13  H    0.184588
    14  H    0.192633
    15  H    0.192293
    16  H    0.207317
    17  H    0.182071
    18  H    0.206592
 Sum of Mulliken charges =  -0.00000
 Mulliken charges with hydrogens summed into heavy atoms:
               1
     1  O   -0.474375
     2  S    1.233982
     3  C   -0.190332
     4  C    0.054639
     5  C   -0.006696
     6  C    0.130896
     7  C   -0.001053
     8  C   -0.008617
     9  C    0.035923
    10  F   -0.288045
    11  O   -0.486321
 APT charges:
               1
     1  O   -0.095738
     2  S    0.205272
     3  C   -0.352721
     4  C   -0.598183
     5  C   -0.527579
     6  C    0.221310
     7  C   -1.557940
     8  C   -0.543754
     9  C   -0.599750
    10  F   -0.045612
    11  O   -0.089385
    12  H    0.520488
    13  H    0.666303
    14  H    0.562970
    15  H    0.551511
    16  H    0.538922
    17  H    0.648206
    18  H    0.495679
 Sum of APT charges =  -0.00000
 APT charges with hydrogens summed into heavy atoms:
               1
     1  O   -0.095738
     2  S    0.205272
     3  C   -0.352721
     4  C   -0.077695
     5  C    0.138724
     6  C    0.221310
     7  C    0.095463
     8  C    0.104451
     9  C   -0.104070
    10  F   -0.045612
    11  O   -0.089385
 Electronic spatial extent (au):  <R**2>=           2200.2843
 Charge=             -0.0000 electrons
 Dipole moment (field-independent basis, Debye):
    X=             -5.6379    Y=              0.9682    Z=             -0.3805  Tot=              5.7331
 Quadrupole moment (field-independent basis, Debye-Ang):
   XX=            -68.3171   YY=            -63.2666   ZZ=            -75.3231
   XY=              2.8980   XZ=             -1.2907   YZ=             -1.3759
 Traceless Quadrupole moment (field-independent basis, Debye-Ang):
   XX=              0.6518   YY=              5.7023   ZZ=             -6.3542
   XY=              2.8980   XZ=             -1.2907   YZ=             -1.3759
 Octapole moment (field-independent basis, Debye-Ang**2):
  XXX=            -19.7208  YYY=              6.0035  ZZZ=             -5.7929  XYY=             -0.4884
  XXY=              8.5674  XXZ=             -3.8944  XZZ=              4.9334  YZZ=              3.5292
  YYZ=              1.2731  XYZ=             -3.0127
 Hexadecapole moment (field-independent basis, Debye-Ang**3):
 XXXX=          -2068.6630 YYYY=           -373.6574 ZZZZ=           -183.0789 XXXY=             32.2406
 XXXZ=            -15.8286 YYYX=             18.1872 YYYZ=             -5.3039 ZZZX=            -18.2074
 ZZZY=             -4.0066 XXYY=           -414.6534 XXZZ=           -412.1669 YYZZ=           -104.4461
 XXYZ=             -7.7459 YYXZ=              6.1239 ZZXY=              8.0847
 N-N= 7.253316682514D+02 E-N=-3.613330683396D+03  KE= 9.130202700489D+02
  Exact polarizability:   0.000   0.000   0.000   0.000   0.000   0.000
 Approx polarizability: 177.311  -1.553 160.846   2.308   4.085  86.642
 R6APFD:  NTU= -4 IXU= 1 FactS= 1.050
 Calling FoFJK, ICntrl=    100147 FMM=F ISym2X=0 I1Cent= 0 IOpClX= 0 NMat=1 NMatS=1 NMatT=0.
 ***** Axes restored to original set *****
 -------------------------------------------------------------------
 Center     Atomic                   Forces (Hartrees/Bohr)
 Number     Number              X              Y              Z
 -------------------------------------------------------------------
      1        8           0.004752086    0.003499731   -0.002617641
      2       16           0.003723034   -0.033381548    0.004859206
      3        6          -0.006348394    0.019326410   -0.007154611
      4        6           0.001296591   -0.003651395   -0.000870048
      5        6           0.006680934    0.006857030    0.002368220
      6        6          -0.000275876    0.000138837    0.002671954
      7        6           0.002216955    0.001591385   -0.005562464
      8        6           0.005717478   -0.005221045   -0.001304357
      9        6          -0.005316216   -0.000245620    0.002502260
     10        9          -0.010193229    0.009502572   -0.000922207
     11        8           0.001331820    0.002014770    0.004006110
     12        1           0.000731574    0.002235767   -0.000680668
     13        1          -0.000003551    0.001368166   -0.000073191
     14        1          -0.001126327   -0.001163863    0.002189312
     15        1          -0.001205857   -0.000140306    0.002444586
     16        1          -0.003001399   -0.000298971    0.000308312
     17        1          -0.000112423   -0.001128034   -0.001017782
     18        1           0.001132799   -0.001303885   -0.001146992
 -------------------------------------------------------------------
 Cartesian Forces:  Max     0.033381548 RMS     0.006337514
 FormGI is forming the generalized inverse of G from B-inverse, IUseBI=4.

 GradGradGradGradGradGradGradGradGradGradGradGradGradGradGradGradGradGrad
 Berny optimization.
 Internal  Forces:  Max     0.032549669 RMS     0.004748585
 Search for a local minimum.
 Step number   1 out of a maximum of   94
 All quantities printed in internal units (Hartrees-Bohrs-Radians)
 Mixed Optimization -- RFO/linear search
 Second derivative matrix not updated -- analytic derivatives used.
 ITU=  0
     Eigenvalues ---   -0.00162   0.00005   0.01182   0.01636   0.01693
     Eigenvalues ---    0.01904   0.02098   0.02282   0.02468   0.02711
     Eigenvalues ---    0.02739   0.05911   0.05972   0.11721   0.11932
     Eigenvalues ---    0.12083   0.12792   0.13094   0.14020   0.14943
     Eigenvalues ---    0.15052   0.16105   0.16933   0.17216   0.17973
     Eigenvalues ---    0.19211   0.20050   0.20449   0.22298   0.23344
     Eigenvalues ---    0.29907   0.31905   0.33355   0.34600   0.34611
     Eigenvalues ---    0.35309   0.36150   0.36406   0.36559   0.36712
     Eigenvalues ---    0.41468   0.42341   0.43223   0.47459   0.47704
     Eigenvalues ---    0.51397   0.67739   0.68046
 RFO step:  Lambda=-9.41957516D-03 EMin=-1.61986632D-03
 Linear search not attempted -- first point.
 Iteration  1 RMS(Cart)=  0.10075468 RMS(Int)=  0.05662259
 Iteration  2 RMS(Cart)=  0.09102027 RMS(Int)=  0.00769483
 Iteration  3 RMS(Cart)=  0.00914900 RMS(Int)=  0.00067932
 Iteration  4 RMS(Cart)=  0.00009331 RMS(Int)=  0.00067620
 Iteration  5 RMS(Cart)=  0.00000022 RMS(Int)=  0.00067620
 Variable       Old X    -DE/DX   Delta X   Delta X   Delta X     New X
                                 (Linear)    (Quad)   (Total)
    R1        2.73627  -0.00175   0.00000  -0.00622  -0.00622   2.73005
    R2        3.33853  -0.00131   0.00000  -0.01175  -0.01175   3.32679
    R3        3.00873   0.00685   0.00000   0.02863   0.02863   3.03736
    R4        2.73800  -0.00368   0.00000  -0.00819  -0.00819   2.72981
    R5        2.63803  -0.00513   0.00000  -0.00806  -0.00792   2.63011
    R6        2.63764  -0.00271   0.00000  -0.00347  -0.00335   2.63429
    R7        2.63650  -0.00478   0.00000  -0.00827  -0.00826   2.62825
    R8        2.05599  -0.00130   0.00000  -0.00422  -0.00422   2.05177
    R9        2.64992  -0.00234   0.00000  -0.00716  -0.00728   2.64264
   R10        2.05696  -0.00118   0.00000  -0.00189  -0.00189   2.05507
   R11        2.83711   0.00313   0.00000   0.00286   0.00286   2.83997
   R12        2.65031  -0.00383   0.00000  -0.00262  -0.00276   2.64755
   R13        2.06939  -0.00030   0.00000  -0.00111  -0.00111   2.06828
   R14        2.06939  -0.00032   0.00000  -0.00098  -0.00098   2.06841
   R15        2.06791   0.00140   0.00000   0.00576   0.00576   2.07367
   R16        2.63739  -0.00427   0.00000  -0.01343  -0.01345   2.62394
   R17        2.05709  -0.00105   0.00000  -0.00191  -0.00191   2.05518
   R18        2.05456  -0.00091   0.00000  -0.00333  -0.00333   2.05122
    A1        1.87789   0.01378   0.00000   0.06499   0.06347   1.94136
    A2        1.84674   0.00254   0.00000  -0.00650  -0.00457   1.84217
    A3        2.13849  -0.00469   0.00000  -0.00619  -0.00921   2.12927
    A4        1.86100  -0.03255   0.00000  -0.14620  -0.14512   1.71588
    A5        1.88528   0.00774   0.00000   0.03620   0.03431   1.91960
    A6        1.83744   0.00682   0.00000   0.02698   0.02762   1.86506
    A7        2.08490  -0.00821   0.00000  -0.02175  -0.02287   2.06203
    A8        2.08365   0.00625   0.00000   0.01407   0.01287   2.09651
    A9        2.11417   0.00198   0.00000   0.01001   0.00944   2.12361
   A10        2.08172  -0.00271   0.00000  -0.00956  -0.00929   2.07244
   A11        2.10873  -0.00037   0.00000  -0.01289  -0.01308   2.09565
   A12        2.09273   0.00308   0.00000   0.02246   0.02226   2.11499
   A13        2.10215   0.00359   0.00000   0.01032   0.01034   2.11249
   A14        2.08210  -0.00119   0.00000   0.00196   0.00193   2.08402
   A15        2.09893  -0.00240   0.00000  -0.01230  -0.01233   2.08661
   A16        2.09846   0.00170   0.00000   0.00772   0.00771   2.10617
   A17        2.08464  -0.00332   0.00000  -0.01163  -0.01182   2.07282
   A18        2.09918   0.00164   0.00000   0.00477   0.00476   2.10393
   A19        1.93539   0.00138   0.00000   0.01097   0.01083   1.94622
   A20        1.93533   0.00143   0.00000   0.01118   0.01104   1.94637
   A21        1.91927   0.00253   0.00000   0.01153   0.01152   1.93079
   A22        1.87153   0.00020   0.00000   0.01425   0.01399   1.88552
   A23        1.90062  -0.00289   0.00000  -0.02449  -0.02449   1.87613
   A24        1.90058  -0.00288   0.00000  -0.02481  -0.02482   1.87576
   A25        2.10290   0.00184   0.00000   0.01186   0.01185   2.11476
   A26        2.09688  -0.00179   0.00000  -0.01194  -0.01194   2.08494
   A27        2.08340  -0.00005   0.00000   0.00008   0.00009   2.08349
   A28        2.08058  -0.00138   0.00000  -0.01067  -0.01044   2.07014
   A29        2.11478  -0.00101   0.00000  -0.00838  -0.00854   2.10624
   A30        2.08778   0.00239   0.00000   0.01919   0.01903   2.10681
    D1       -1.60597  -0.00574   0.00000  -0.40059  -0.40271  -2.00868
    D2        1.56812  -0.00673   0.00000  -0.48144  -0.48314   1.08499
    D3        2.70252   0.00038   0.00000  -0.35398  -0.35361   2.34891
    D4       -0.40657  -0.00061   0.00000  -0.43482  -0.43403  -0.84060
    D5        0.73509   0.00454   0.00000  -0.33175  -0.33064   0.40445
    D6       -2.37400   0.00355   0.00000  -0.41260  -0.41106  -2.78507
    D7       -3.11872  -0.00154   0.00000  -0.08709  -0.08649   3.07797
    D8        0.02393  -0.00155   0.00000  -0.10368  -0.10309  -0.07916
    D9       -0.01022  -0.00045   0.00000  -0.00473  -0.00470  -0.01491
   D10        3.13244  -0.00047   0.00000  -0.02131  -0.02130   3.11114
   D11        3.11930   0.00104   0.00000   0.07507   0.07608  -3.08780
   D12       -0.03307   0.00127   0.00000   0.08984   0.09055   0.05749
   D13        0.01077   0.00023   0.00000  -0.00657  -0.00664   0.00414
   D14        3.14159   0.00045   0.00000   0.00820   0.00784  -3.13376
   D15        0.01423   0.00019   0.00000   0.00149   0.00153   0.01576
   D16       -3.13052  -0.00007   0.00000  -0.00755  -0.00772  -3.13825
   D17       -3.12841   0.00020   0.00000   0.01790   0.01830  -3.11011
   D18        0.01002  -0.00006   0.00000   0.00886   0.00905   0.01907
   D19       -3.11470  -0.00030   0.00000  -0.00855  -0.00864  -3.12334
   D20       -0.01883   0.00033   0.00000   0.01303   0.01286  -0.00597
   D21        0.03009  -0.00004   0.00000   0.00055   0.00060   0.03069
   D22        3.12596   0.00059   0.00000   0.02213   0.02210  -3.13513
   D23       -0.55588   0.00129   0.00000   0.03446   0.03461  -0.52127
   D24       -2.63304  -0.00078   0.00000   0.00227   0.00223  -2.63080
   D25        1.54718   0.00023   0.00000   0.01850   0.01856   1.56574
   D26        2.63181   0.00078   0.00000   0.01312   0.01317   2.64498
   D27        0.55466  -0.00129   0.00000  -0.01906  -0.01921   0.53545
   D28       -1.54831  -0.00028   0.00000  -0.00283  -0.00289  -1.55120
   D29        0.01941  -0.00059   0.00000  -0.02449  -0.02457  -0.00517
   D30       -3.12298  -0.00068   0.00000  -0.02487  -0.02476   3.13545
   D31        3.11526   0.00005   0.00000  -0.00282  -0.00303   3.11223
   D32       -0.02713  -0.00004   0.00000  -0.00320  -0.00321  -0.03034
   D33       -0.01536   0.00028   0.00000   0.02122   0.02143   0.00607
   D34        3.13684   0.00008   0.00000   0.00685   0.00712  -3.13922
   D35        3.12702   0.00037   0.00000   0.02159   0.02162  -3.13455
   D36       -0.00396   0.00017   0.00000   0.00723   0.00731   0.00335
         Item               Value     Threshold  Converged?
 Maximum Force            0.032550     0.000450     NO 
 RMS     Force            0.004749     0.000300     NO 
 Maximum Displacement     0.821437     0.001800     NO 
 RMS     Displacement     0.188385     0.001200     NO 
 Predicted change in Energy=-7.354469D-03
 GradGradGradGradGradGradGradGradGradGradGradGradGradGradGradGradGradGrad

                          Input orientation:                          
 ---------------------------------------------------------------------
 Center     Atomic      Atomic             Coordinates (Angstroms)
 Number     Number       Type             X           Y           Z
 ---------------------------------------------------------------------
      1          8           0        3.481923    0.306384    1.809829
      2         16           0        3.072656    0.100709    0.439682
      3          6           0        1.318424    0.059003    0.297713
      4          6           0        0.720629   -1.130847   -0.107240
      5          6           0       -0.667751   -1.201158   -0.149696
      6          6           0       -1.456277   -0.096688    0.187898
      7          6           0       -2.956076   -0.188692    0.161710
      8          6           0       -0.822396    1.089683    0.579796
      9          6           0        0.561918    1.178151    0.641896
     10          9           0        3.332608    1.502411   -0.302664
     11          8           0        3.659572   -0.927143   -0.388442
     12          1           0        1.335470   -1.977663   -0.396594
     13          1           0       -1.146233   -2.126617   -0.461510
     14          1           0       -3.300975   -0.908358   -0.587307
     15          1           0       -3.413873    0.779815   -0.062945
     16          1           0       -3.340305   -0.516722    1.135832
     17          1           0       -1.424579    1.957345    0.839237
     18          1           0        1.045263    2.100386    0.948630
 ---------------------------------------------------------------------
                    Distance matrix (angstroms):
                    1          2          3          4          5
     1  O    0.000000
     2  S    1.444682   0.000000
     3  C    2.651116   1.760461   0.000000
     4  C    3.655890   2.710698   1.391794   0.000000
     5  C    4.830344   4.004106   2.394384   1.390808   0.000000
     6  C    5.213343   4.540219   2.781235   2.428068   1.398426
     7  C    6.664025   6.042071   4.283830   3.805016   2.521605
     8  C    4.544635   4.021086   2.392694   2.789929   2.409155
     9  C    3.263507   2.739630   1.394007   2.432666   2.792814
    10  F    2.432161   1.607303   2.549670   3.714118   4.830690
    11  O    2.526964   1.444556   2.631400   2.959384   4.342558
    12  H    3.833071   2.834926   2.151828   1.085750   2.162595
    13  H    5.700728   4.855116   3.380516   2.145283   1.087496
    14  H    7.295859   6.534224   4.801864   4.056262   2.685349
    15  H    7.161245   6.541320   4.800446   4.554855   3.387176
    16  H    6.904677   6.480116   4.768402   4.291103   3.043612
    17  H    5.267018   4.881788   3.379499   3.877456   3.395131
    18  H    3.146017   2.892759   2.159989   3.414838   3.878264
                    6          7          8          9         10
     6  C    0.000000
     7  C    1.502846   0.000000
     8  C    1.401023   2.522226   0.000000
     9  C    2.429905   3.804617   1.388528   0.000000
    10  F    5.072592   6.528630   4.267686   2.945176   0.000000
    11  O    5.214761   6.679429   5.009303   3.884497   2.452957
    12  H    3.416658   4.682893   3.875351   3.411159   4.013515
    13  H    2.153710   2.723873   3.396141   3.880305   5.766723
    14  H    2.159319   1.094487   3.390818   4.559210   7.063798
    15  H    2.159482   1.094556   2.687915   4.057386   6.789302
    16  H    2.150481   1.097338   3.038022   4.282979   7.118563
    17  H    2.155063   2.722131   1.087552   2.142955   4.913423
    18  H    3.415194   4.676519   2.155391   1.085461   2.674932
                   11         12         13         14         15
    11  O    0.000000
    12  H    2.550512   0.000000
    13  H    4.953771   2.487017   0.000000
    14  H    6.963412   4.761975   2.478486   0.000000
    15  H    7.283768   5.501933   3.707882   1.771335   0.000000
    16  H    7.175663   5.132792   3.155505   1.767522   1.767339
    17  H    5.972944   4.962805   4.295132   3.710544   2.481492
    18  H    4.217619   4.303991   4.965753   5.504673   4.759316
                   16         17         18
    16  H    0.000000
    17  H    3.143084   0.000000
    18  H    5.110528   2.476397   0.000000
 Stoichiometry    C7H7FO2S
 Framework group  C1[X(C7H7FO2S)]
 Deg. of freedom    48
 Full point group                 C1      NOp   1
 Largest Abelian subgroup         C1      NOp   1
 Largest concise Abelian subgroup C1      NOp   1
                         Standard orientation:                         
 ---------------------------------------------------------------------
 Center     Atomic      Atomic             Coordinates (Angstroms)
 Number     Number       Type             X           Y           Z
 ---------------------------------------------------------------------
      1          8           0        2.368401    0.486377    1.336851
      2         16           0        1.892590   -0.093886    0.102346
      3          6           0        0.135681   -0.036491    0.006442
      4          6           0       -0.560929   -1.241357   -0.004600
      5          6           0       -1.951383   -1.210016   -0.002529
      6          6           0       -2.645217    0.004132   -0.008520
      7          6           0       -4.147638    0.028756    0.017367
      8          6           0       -1.913397    1.198830   -0.009375
      9          6           0       -0.524935    1.191035    0.001734
     10          9           0        2.223083    0.989196   -1.038325
     11          8           0        2.371918   -1.368780   -0.378935
     12          1           0       -0.019909   -2.182390   -0.029199
     13          1           0       -2.506555   -2.145110   -0.007911
     14          1           0       -4.571930   -0.855037   -0.469242
     15          1           0       -4.543391    0.915980   -0.486880
     16          1           0       -4.516229    0.045214    1.050817
     17          1           0       -2.441472    2.149512   -0.019831
     18          1           0        0.034656    2.121133    0.003198
 ---------------------------------------------------------------------
 Rotational constants (GHZ):           2.5725589           0.5608721           0.5099716
 Standard basis: 6-31G(d) (6D, 7F)
 There are   183 symmetry adapted cartesian basis functions of A   symmetry.
 There are   183 symmetry adapted basis functions of A   symmetry.
   183 basis functions,   360 primitive gaussians,   183 cartesian basis functions
    45 alpha electrons       45 beta electrons
       nuclear repulsion energy       727.4770045188 Hartrees.
 NAtoms=   18 NActive=   18 NUniq=   18 SFac= 1.00D+00 NAtFMM=   60 NAOKFM=F Big=F
 Integral buffers will be    131072 words long.
 Raffenetti 2 integral format.
 Two-electron integral symmetry is turned on.
 R6APFD:  NTU= -4 IXU= 1 FactS= 1.050
 Nuclear repulsion after empirical dispersion term =      727.4623985931 Hartrees.
 One-electron integrals computed using PRISM.
 NBasis=   183 RedAO= T EigKep=  4.48D-04  NBF=   183
 NBsUse=   183 1.00D-06 EigRej= -1.00D+00 NBFU=   183
 Initial guess from the checkpoint file:  "IZZYABADQVQHLC-UHFFFAOYSA-N_conf_0_0.chk"
 B after Tr=    -0.000000   -0.000000   -0.000000
         Rot=    0.995809    0.091240   -0.002750   -0.005590 Ang=  10.49 deg.
 ExpMin= 1.17D-01 ExpMax= 2.19D+04 ExpMxC= 3.30D+03 IAcc=2 IRadAn=         4 AccDes= 0.00D+00
 Harris functional with IExCor= 3731 and IRadAn=       4 diagonalized for initial guess.
 HarFok:  IExCor= 3731 AccDes= 0.00D+00 IRadAn=         4 IDoV= 1 UseB2=F ITyADJ=14
 ICtDFT=  3500011 ScaDFX=  1.000000  1.000000  1.000000  1.000000
 FoFCou: FMM=F IPFlag=           0 FMFlag=      100000 FMFlg1=           0
         NFxFlg=           0 DoJE=T BraDBF=F KetDBF=T FulRan=T
         wScrn=  0.000000 ICntrl=       500 IOpCl=  0 I1Cent=   200000004 NGrid=           0
         NMat0=    1 NMatS0=      1 NMatT0=    0 NMatD0=    1 NMtDS0=    0 NMtDT0=    0
 Petite list used in FoFCou.
 Keep R1 ints in memory in canonical form, NReq=144849755.
 Requested convergence on RMS density matrix=1.00D-08 within  32 cycles.
 Requested convergence on MAX density matrix=1.00D-06.
 Requested convergence on             energy=1.00D-06.
 No special actions if energy rises.
 Integral accuracy reduced to 1.0D-05 until final iterations.
 Initial convergence to 1.0D-05 achieved.  Increase integral accuracy.
 SCF Done:  E(RAPFD) =  -918.875285458     A.U. after   14 cycles
            NFock= 14  Conv=0.90D-08     -V/T= 2.0063
 QCSCF skips out because SCF is already converged.
 R6APFD:  NTU= -4 IXU= 1 FactS= 1.050
 Calling FoFJK, ICntrl=      2127 FMM=F ISym2X=0 I1Cent= 0 IOpClX= 0 NMat=1 NMatS=1 NMatT=0.
 ***** Axes restored to original set *****
 -------------------------------------------------------------------
 Center     Atomic                   Forces (Hartrees/Bohr)
 Number     Number              X              Y              Z
 -------------------------------------------------------------------
      1        8           0.000241311    0.000978551    0.000116627
      2       16          -0.001098018   -0.001922504    0.000609011
      3        6          -0.001483267   -0.000007693   -0.000765749
      4        6           0.000136624   -0.000378085   -0.000183763
      5        6           0.000148343    0.000684936   -0.000832782
      6        6          -0.000231264   -0.000258860    0.000932642
      7        6           0.000295375    0.000207845   -0.000606498
      8        6           0.000042997    0.000075915   -0.000482722
      9        6          -0.000164839   -0.000761148    0.001740009
     10        9           0.001363579    0.001639809   -0.001263643
     11        8           0.000791049   -0.000197318    0.000053645
     12        1           0.000076390   -0.000043775    0.000403641
     13        1          -0.000008863    0.000059803   -0.000146405
     14        1          -0.000077531   -0.000198446    0.000235351
     15        1          -0.000089506    0.000015052    0.000278093
     16        1          -0.000238225   -0.000003741    0.000019428
     17        1          -0.000047029    0.000030406   -0.000180401
     18        1           0.000342871    0.000079253    0.000073516
 -------------------------------------------------------------------
 Cartesian Forces:  Max     0.001922504 RMS     0.000656150

 GradGradGradGradGradGradGradGradGradGradGradGradGradGradGradGradGradGrad
 Berny optimization.
 Using GEDIIS/GDIIS optimizer.
 FormGI is forming the generalized inverse of G from B-inverse, IUseBI=4.
 Internal  Forces:  Max     0.002234272 RMS     0.000495802
 Search for a local minimum.
 Step number   2 out of a maximum of   94
 All quantities printed in internal units (Hartrees-Bohrs-Radians)
 Mixed Optimization -- En-DIIS/RFO-DIIS
 Update second derivatives using D2CorX and points    1    2
 DE= -6.50D-03 DEPred=-7.35D-03 R= 8.83D-01
 TightC=F SS=  1.41D+00  RLast= 1.03D+00 DXNew= 5.0454D-01 3.0870D+00
 Trust test= 8.83D-01 RLast= 1.03D+00 DXMaxT set to 5.05D-01
 ITU=  1  0
 Use linear search instead of GDIIS.
     Eigenvalues ---   -0.00262   0.00005   0.01210   0.01636   0.01695
     Eigenvalues ---    0.01916   0.02095   0.02282   0.02471   0.02710
     Eigenvalues ---    0.02737   0.05880   0.05972   0.11718   0.11851
     Eigenvalues ---    0.12060   0.12758   0.13004   0.13632   0.14940
     Eigenvalues ---    0.15029   0.16081   0.16543   0.17161   0.17911
     Eigenvalues ---    0.18383   0.19405   0.20123   0.21597   0.23318
     Eigenvalues ---    0.29911   0.31956   0.33247   0.34600   0.34600
     Eigenvalues ---    0.35296   0.36149   0.36385   0.36559   0.36709
     Eigenvalues ---    0.41335   0.42339   0.43176   0.47424   0.47659
     Eigenvalues ---    0.51184   0.67746   0.68045
 RFO step:  Lambda=-3.52006158D-03 EMin=-2.62306532D-03
 Quartic linear search produced a step of  0.11622.
 Iteration  1 RMS(Cart)=  0.09599957 RMS(Int)=  0.06867887
 Iteration  2 RMS(Cart)=  0.09351998 RMS(Int)=  0.01628495
 Iteration  3 RMS(Cart)=  0.02674503 RMS(Int)=  0.00058308
 Iteration  4 RMS(Cart)=  0.00059877 RMS(Int)=  0.00021175
 Iteration  5 RMS(Cart)=  0.00000030 RMS(Int)=  0.00021175
 Variable       Old X    -DE/DX   Delta X   Delta X   Delta X     New X
                                 (Linear)    (Quad)   (Total)
    R1        2.73005   0.00032  -0.00072   0.00361   0.00289   2.73294
    R2        3.32679   0.00127  -0.00136   0.00181   0.00044   3.32723
    R3        3.03736   0.00223   0.00333  -0.00721  -0.00388   3.03348
    R4        2.72981   0.00043  -0.00095   0.00495   0.00400   2.73381
    R5        2.63011  -0.00005  -0.00092  -0.00072  -0.00160   2.62851
    R6        2.63429  -0.00017  -0.00039   0.00603   0.00568   2.63997
    R7        2.62825   0.00013  -0.00096   0.00764   0.00668   2.63493
    R8        2.05177  -0.00003  -0.00049   0.00060   0.00011   2.05188
    R9        2.64264   0.00011  -0.00085   0.00052  -0.00037   2.64228
   R10        2.05507  -0.00001  -0.00022   0.00093   0.00071   2.05578
   R11        2.83997   0.00011   0.00033  -0.00198  -0.00165   2.83832
   R12        2.64755  -0.00006  -0.00032   0.00658   0.00622   2.65377
   R13        2.06828  -0.00001  -0.00013   0.00029   0.00016   2.06844
   R14        2.06841  -0.00001  -0.00011   0.00044   0.00033   2.06874
   R15        2.07367   0.00010   0.00067  -0.00212  -0.00145   2.07221
   R16        2.62394   0.00007  -0.00156   0.00094  -0.00063   2.62331
   R17        2.05518   0.00001  -0.00022   0.00082   0.00060   2.05577
   R18        2.05122   0.00024  -0.00039   0.00407   0.00368   2.05490
    A1        1.94136  -0.00015   0.00738  -0.03532  -0.02807   1.91330
    A2        1.84217  -0.00108  -0.00053  -0.01818  -0.01800   1.82417
    A3        2.12927  -0.00048  -0.00107   0.01929   0.01769   2.14697
    A4        1.71588   0.00204  -0.01687   0.07635   0.05979   1.77566
    A5        1.91960   0.00121   0.00399  -0.01075  -0.00710   1.91249
    A6        1.86506  -0.00120   0.00321  -0.01685  -0.01362   1.85144
    A7        2.06203   0.00046  -0.00266   0.03935   0.03625   2.09828
    A8        2.09651  -0.00060   0.00150  -0.03930  -0.03813   2.05838
    A9        2.12361   0.00014   0.00110  -0.00124  -0.00033   2.12328
   A10        2.07244  -0.00030  -0.00108   0.00210   0.00111   2.07355
   A11        2.09565   0.00003  -0.00152  -0.00426  -0.00583   2.08982
   A12        2.11499   0.00027   0.00259   0.00214   0.00468   2.11967
   A13        2.11249   0.00027   0.00120  -0.00525  -0.00404   2.10845
   A14        2.08402  -0.00012   0.00022   0.00012   0.00033   2.08435
   A15        2.08661  -0.00015  -0.00143   0.00516   0.00372   2.09033
   A16        2.10617   0.00010   0.00090  -0.00269  -0.00178   2.10440
   A17        2.07282  -0.00017  -0.00137   0.00744   0.00602   2.07884
   A18        2.10393   0.00007   0.00055  -0.00479  -0.00422   2.09971
   A19        1.94622   0.00011   0.00126  -0.00346  -0.00223   1.94399
   A20        1.94637   0.00011   0.00128  -0.00352  -0.00226   1.94412
   A21        1.93079   0.00017   0.00134  -0.00623  -0.00489   1.92590
   A22        1.88552   0.00010   0.00163  -0.00290  -0.00131   1.88421
   A23        1.87613  -0.00026  -0.00285   0.00883   0.00598   1.88211
   A24        1.87576  -0.00026  -0.00288   0.00820   0.00531   1.88107
   A25        2.11476  -0.00004   0.00138  -0.00722  -0.00584   2.10892
   A26        2.08494  -0.00004  -0.00139   0.00435   0.00296   2.08790
   A27        2.08349   0.00008   0.00001   0.00287   0.00288   2.08637
   A28        2.07014   0.00009  -0.00121   0.00418   0.00304   2.07318
   A29        2.10624  -0.00032  -0.00099   0.00194   0.00090   2.10714
   A30        2.10681   0.00022   0.00221  -0.00612  -0.00396   2.10285
    D1       -2.00868  -0.00082  -0.04680  -0.38415  -0.43148  -2.44016
    D2        1.08499  -0.00095  -0.05615  -0.41192  -0.46855   0.61644
    D3        2.34891  -0.00053  -0.04109  -0.38907  -0.42988   1.91903
    D4       -0.84060  -0.00066  -0.05044  -0.41684  -0.46695  -1.30755
    D5        0.40445  -0.00048  -0.03843  -0.40143  -0.43969  -0.03524
    D6       -2.78507  -0.00061  -0.04777  -0.42920  -0.47675   3.02137
    D7        3.07797   0.00026  -0.01005  -0.02548  -0.03619   3.04179
    D8       -0.07916   0.00013  -0.01198  -0.02656  -0.03905  -0.11822
    D9       -0.01491   0.00041  -0.00055   0.00382   0.00333  -0.01159
   D10        3.11114   0.00027  -0.00248   0.00274   0.00046   3.11160
   D11       -3.08780  -0.00018   0.00884   0.02128   0.02950  -3.05831
   D12        0.05749   0.00001   0.01052   0.02203   0.03203   0.08952
   D13        0.00414  -0.00031  -0.00077  -0.00641  -0.00713  -0.00299
   D14       -3.13376  -0.00012   0.00091  -0.00566  -0.00460  -3.13835
   D15        0.01576  -0.00036   0.00018  -0.00056  -0.00050   0.01526
   D16       -3.13825  -0.00020  -0.00090   0.00219   0.00128  -3.13697
   D17       -3.11011  -0.00023   0.00213   0.00060   0.00252  -3.10759
   D18        0.01907  -0.00007   0.00105   0.00335   0.00430   0.02336
   D19       -3.12334   0.00012  -0.00100   0.00146   0.00052  -3.12282
   D20       -0.00597   0.00023   0.00149  -0.00003   0.00152  -0.00445
   D21        0.03069  -0.00005   0.00007  -0.00125  -0.00124   0.02945
   D22       -3.13513   0.00007   0.00257  -0.00275  -0.00024  -3.13537
   D23       -0.52127   0.00021   0.00402   0.00293   0.00697  -0.51430
   D24       -2.63080  -0.00007   0.00026   0.01149   0.01174  -2.61906
   D25        1.56574   0.00007   0.00216   0.00762   0.00979   1.57552
   D26        2.64498   0.00009   0.00153   0.00428   0.00581   2.65079
   D27        0.53545  -0.00018  -0.00223   0.01284   0.01058   0.54603
   D28       -1.55120  -0.00004  -0.00034   0.00897   0.00863  -1.54257
   D29       -0.00517  -0.00013  -0.00286  -0.00257  -0.00537  -0.01054
   D30        3.13545  -0.00014  -0.00288   0.00034  -0.00260   3.13285
   D31        3.11223  -0.00002  -0.00035  -0.00403  -0.00434   3.10789
   D32       -0.03034  -0.00002  -0.00037  -0.00112  -0.00156  -0.03190
   D33        0.00607   0.00017   0.00249   0.00572   0.00809   0.01416
   D34       -3.13922  -0.00002   0.00083   0.00499   0.00557  -3.13365
   D35       -3.13455   0.00018   0.00251   0.00281   0.00532  -3.12923
   D36        0.00335  -0.00002   0.00085   0.00208   0.00280   0.00615
         Item               Value     Threshold  Converged?
 Maximum Force            0.002234     0.000450     NO 
 RMS     Force            0.000496     0.000300     NO 
 Maximum Displacement     0.975416     0.001800     NO 
 RMS     Displacement     0.209811     0.001200     NO 
 Predicted change in Energy=-3.576971D-03
 GradGradGradGradGradGradGradGradGradGradGradGradGradGradGradGradGradGrad

                          Input orientation:                          
 ---------------------------------------------------------------------
 Center     Atomic      Atomic             Coordinates (Angstroms)
 Number     Number       Type             X           Y           Z
 ---------------------------------------------------------------------
      1          8           0        3.384724    0.822552    1.702672
      2         16           0        3.064263    0.137780    0.469826
      3          6           0        1.316242    0.059622    0.273953
      4          6           0        0.717937   -1.095057   -0.219493
      5          6           0       -0.674052   -1.170204   -0.249686
      6          6           0       -1.458659   -0.099557    0.189815
      7          6           0       -2.957534   -0.195220    0.177493
      8          6           0       -0.826450    1.058619    0.670478
      9          6           0        0.558126    1.143321    0.723952
     10          9           0        3.476253    1.174018   -0.684859
     11          8           0        3.650991   -1.131072    0.097512
     12          1           0        1.337234   -1.907650   -0.587108
     13          1           0       -1.152574   -2.070306   -0.629556
     14          1           0       -3.308585   -0.857871   -0.619843
     15          1           0       -3.419029    0.786216    0.028362
     16          1           0       -3.321903   -0.595074    1.131335
     17          1           0       -1.428660    1.899820    1.006899
     18          1           0        1.041674    2.040063    1.104072
 ---------------------------------------------------------------------
                    Distance matrix (angstroms):
                    1          2          3          4          5
     1  O    0.000000
     2  S    1.446209   0.000000
     3  C    2.627150   1.760696   0.000000
     4  C    3.805745   2.738665   1.390949   0.000000
     5  C    4.925083   4.025359   2.397486   1.394343   0.000000
     6  C    5.157265   4.537792   2.780736   2.428193   1.398232
     7  C    6.601990   6.038078   4.282454   3.804785   2.519398
     8  C    4.342251   4.003230   2.397156   2.795622   2.416108
     9  C    3.008396   2.712271   1.397012   2.434330   2.796181
    10  F    2.414998   1.605249   2.612824   3.601884   4.786416
    11  O    2.542457   1.446670   2.626773   2.950355   4.339133
    12  H    4.109661   2.878110   2.147563   1.085808   2.168630
    13  H    5.864724   4.885283   3.383485   2.148971   1.087873
    14  H    7.281366   6.541551   4.798926   4.053322   2.678681
    15  H    7.006833   6.530577   4.796984   4.551386   3.382276
    16  H    6.878585   6.462026   4.761945   4.288942   3.041234
    17  H    4.981293   4.855881   3.384971   3.883452   3.401982
    18  H    2.707497   2.848124   2.164863   3.418421   3.883580
                    6          7          8          9         10
     6  C    0.000000
     7  C    1.501975   0.000000
     8  C    1.404314   2.521243   0.000000
     9  C    2.428471   3.801339   1.388195   0.000000
    10  F    5.171112   6.634160   4.512594   3.240549   0.000000
    11  O    5.213546   6.674940   5.017023   3.889872   2.440508
    12  H    3.419039   4.686370   3.880955   3.410911   3.752551
    13  H    2.156132   2.724913   3.403912   3.884054   5.652852
    14  H    2.157038   1.094572   3.390996   4.556535   7.082854
    15  H    2.157247   1.094731   2.684769   4.053287   6.942909
    16  H    2.145617   1.096568   3.028923   4.271136   7.255561
    17  H    2.160101   2.722970   1.087867   2.144684   5.238989
    18  H    3.415480   4.674260   2.154327   1.087408   3.142846
                   11         12         13         14         15
    11  O    0.000000
    12  H    2.534807   0.000000
    13  H    4.948235   2.495477   0.000000
    14  H    7.001781   4.763061   2.473556   0.000000
    15  H    7.325706   5.500706   3.705319   1.770702   0.000000
    16  H    7.069465   5.136483   3.159594   1.770837   1.770295
    17  H    5.984659   4.968688   4.303035   3.712852   2.481778
    18  H    4.228214   4.304868   4.971451   5.504059   4.756802
                   16         17         18
    16  H    0.000000
    17  H    3.134382   0.000000
    18  H    5.097597   2.476219   0.000000
 Stoichiometry    C7H7FO2S
 Framework group  C1[X(C7H7FO2S)]
 Deg. of freedom    48
 Full point group                 C1      NOp   1
 Largest Abelian subgroup         C1      NOp   1
 Largest concise Abelian subgroup C1      NOp   1
                         Standard orientation:                         
 ---------------------------------------------------------------------
 Center     Atomic      Atomic             Coordinates (Angstroms)
 Number     Number       Type             X           Y           Z
 ---------------------------------------------------------------------
      1          8           0        2.299450    1.034690    1.007285
      2         16           0        1.885523   -0.041599    0.134483
      3          6           0        0.130755   -0.044249   -0.009852
      4          6           0       -0.569249   -1.246191   -0.018309
      5          6           0       -1.963157   -1.211925   -0.012196
      6          6           0       -2.649515    0.006250   -0.016157
      7          6           0       -4.150851    0.037329    0.014737
      8          6           0       -1.915912    1.203706   -0.020967
      9          6           0       -0.527858    1.187771   -0.009248
     10          9           0        2.333075    0.434592   -1.331724
     11          8           0        2.362208   -1.399969    0.277505
     12          1           0       -0.025797   -2.185779   -0.046807
     13          1           0       -2.520746   -2.146033   -0.014330
     14          1           0       -4.578305   -0.849032   -0.464571
     15          1           0       -4.542563    0.920970   -0.499242
     16          1           0       -4.510380    0.065514    1.050308
     17          1           0       -2.441289    2.156231   -0.032337
     18          1           0        0.034498    2.118469   -0.005608
 ---------------------------------------------------------------------
 Rotational constants (GHZ):           2.5745522           0.5582256           0.5079154
 Standard basis: 6-31G(d) (6D, 7F)
 There are   183 symmetry adapted cartesian basis functions of A   symmetry.
 There are   183 symmetry adapted basis functions of A   symmetry.
   183 basis functions,   360 primitive gaussians,   183 cartesian basis functions
    45 alpha electrons       45 beta electrons
       nuclear repulsion energy       726.6796289657 Hartrees.
 NAtoms=   18 NActive=   18 NUniq=   18 SFac= 1.00D+00 NAtFMM=   60 NAOKFM=F Big=F
 Integral buffers will be    131072 words long.
 Raffenetti 2 integral format.
 Two-electron integral symmetry is turned on.
 R6APFD:  NTU= -4 IXU= 1 FactS= 1.050
 Nuclear repulsion after empirical dispersion term =      726.6650612649 Hartrees.
 One-electron integrals computed using PRISM.
 NBasis=   183 RedAO= T EigKep=  4.55D-04  NBF=   183
 NBsUse=   183 1.00D-06 EigRej= -1.00D+00 NBFU=   183
 Initial guess from the checkpoint file:  "IZZYABADQVQHLC-UHFFFAOYSA-N_conf_0_0.chk"
 B after Tr=    -0.000000    0.000000   -0.000000
         Rot=    0.994255    0.106962    0.003816    0.001046 Ang=  12.29 deg.
 ExpMin= 1.17D-01 ExpMax= 2.19D+04 ExpMxC= 3.30D+03 IAcc=2 IRadAn=         4 AccDes= 0.00D+00
 Harris functional with IExCor= 3731 and IRadAn=       4 diagonalized for initial guess.
 HarFok:  IExCor= 3731 AccDes= 0.00D+00 IRadAn=         4 IDoV= 1 UseB2=F ITyADJ=14
 ICtDFT=  3500011 ScaDFX=  1.000000  1.000000  1.000000  1.000000
 FoFCou: FMM=F IPFlag=           0 FMFlag=      100000 FMFlg1=           0
         NFxFlg=           0 DoJE=T BraDBF=F KetDBF=T FulRan=T
         wScrn=  0.000000 ICntrl=       500 IOpCl=  0 I1Cent=   200000004 NGrid=           0
         NMat0=    1 NMatS0=      1 NMatT0=    0 NMatD0=    1 NMtDS0=    0 NMtDT0=    0
 Petite list used in FoFCou.
 Keep R1 ints in memory in canonical form, NReq=144849755.
 Requested convergence on RMS density matrix=1.00D-08 within  32 cycles.
 Requested convergence on MAX density matrix=1.00D-06.
 Requested convergence on             energy=1.00D-06.
 No special actions if energy rises.
 Integral accuracy reduced to 1.0D-05 until final iterations.
 Initial convergence to 1.0D-05 achieved.  Increase integral accuracy.
 SCF Done:  E(RAPFD) =  -918.876311131     A.U. after   15 cycles
            NFock= 15  Conv=0.48D-08     -V/T= 2.0064
 QCSCF skips out because SCF is already converged.
 R6APFD:  NTU= -4 IXU= 1 FactS= 1.050
 Calling FoFJK, ICntrl=      2127 FMM=F ISym2X=0 I1Cent= 0 IOpClX= 0 NMat=1 NMatS=1 NMatT=0.
 ***** Axes restored to original set *****
 -------------------------------------------------------------------
 Center     Atomic                   Forces (Hartrees/Bohr)
 Number     Number              X              Y              Z
 -------------------------------------------------------------------
      1        8           0.000068918   -0.001709158   -0.000709853
      2       16           0.001260785   -0.004778833    0.002643306
      3        6          -0.001721020    0.005595099    0.002342065
      4        6          -0.000212818   -0.000773755   -0.001913035
      5        6           0.003839574    0.001989488   -0.000881095
      6        6          -0.000159634    0.001596943    0.001247893
      7        6           0.000619840    0.000455887   -0.001349463
      8        6           0.000448745   -0.002529204   -0.002029011
      9        6          -0.001182005    0.000540208   -0.000146902
     10        9          -0.001945735    0.000773431   -0.003873760
     11        8           0.000341876    0.002155467    0.000967202
     12        1          -0.000135200   -0.000835147    0.001682821
     13        1           0.000069884    0.000455834    0.000077942
     14        1          -0.000362575   -0.000429342    0.000651438
     15        1          -0.000289613   -0.000186504    0.000704184
     16        1          -0.001061415   -0.000104375    0.000118746
     17        1          -0.000035389   -0.000471246   -0.000085217
     18        1           0.000455783   -0.001744793    0.000552740
 -------------------------------------------------------------------
 Cartesian Forces:  Max     0.005595099 RMS     0.001680484

 GradGradGradGradGradGradGradGradGradGradGradGradGradGradGradGradGradGrad
 Berny optimization.
 Using GEDIIS/GDIIS optimizer.
 FormGI is forming the generalized inverse of G from B-inverse, IUseBI=4.
 Internal  Forces:  Max     0.007389839 RMS     0.001423417
 Search for a local minimum.
 Step number   3 out of a maximum of   94
 All quantities printed in internal units (Hartrees-Bohrs-Radians)
 Mixed Optimization -- RFO/linear search
 Update second derivatives using D2CorX and points    2    3
 DE= -1.03D-03 DEPred=-3.58D-03 R= 2.87D-01
 Trust test= 2.87D-01 RLast= 1.11D+00 DXMaxT set to 5.05D-01
 ITU=  0  1  0
 Use linear search instead of GDIIS.
     Eigenvalues ---    0.00005   0.00091   0.01364   0.01640   0.01706
     Eigenvalues ---    0.01993   0.02099   0.02283   0.02535   0.02727
     Eigenvalues ---    0.02746   0.05898   0.05972   0.11720   0.11894
     Eigenvalues ---    0.12130   0.12775   0.13063   0.13650   0.14942
     Eigenvalues ---    0.15053   0.16192   0.16866   0.17783   0.18108
     Eigenvalues ---    0.19321   0.20119   0.20951   0.23306   0.24752
     Eigenvalues ---    0.30061   0.32470   0.33385   0.34600   0.34617
     Eigenvalues ---    0.35316   0.36157   0.36408   0.36580   0.36828
     Eigenvalues ---    0.41824   0.42491   0.43689   0.47432   0.47791
     Eigenvalues ---    0.51753   0.67958   0.68288
 RFO step:  Lambda=-1.15136863D-03 EMin= 5.30366979D-05
 Quartic linear search produced a step of -0.03005.
 Iteration  1 RMS(Cart)=  0.07182636 RMS(Int)=  0.00359418
 Iteration  2 RMS(Cart)=  0.00394858 RMS(Int)=  0.00005257
 Iteration  3 RMS(Cart)=  0.00000919 RMS(Int)=  0.00005228
 Iteration  4 RMS(Cart)=  0.00000000 RMS(Int)=  0.00005228
 Variable       Old X    -DE/DX   Delta X   Delta X   Delta X     New X
                                 (Linear)    (Quad)   (Total)
    R1        2.73294  -0.00140  -0.00009  -0.00115  -0.00124   2.73170
    R2        3.32723  -0.00054  -0.00001   0.00103   0.00102   3.32825
    R3        3.03348   0.00279   0.00012   0.01087   0.01099   3.04447
    R4        2.73381  -0.00200  -0.00012  -0.00223  -0.00235   2.73146
    R5        2.62851  -0.00064   0.00005   0.00111   0.00119   2.62970
    R6        2.63997  -0.00143  -0.00017  -0.00275  -0.00289   2.63708
    R7        2.63493  -0.00282  -0.00020  -0.00444  -0.00464   2.63029
    R8        2.05188  -0.00002  -0.00000  -0.00053  -0.00053   2.05135
    R9        2.64228  -0.00002   0.00001   0.00108   0.00107   2.64334
   R10        2.05578  -0.00044  -0.00002  -0.00041  -0.00043   2.05535
   R11        2.83832   0.00111   0.00005   0.00049   0.00054   2.83886
   R12        2.65377  -0.00225  -0.00019  -0.00297  -0.00318   2.65059
   R13        2.06844  -0.00010  -0.00000  -0.00029  -0.00030   2.06814
   R14        2.06874  -0.00014  -0.00001  -0.00024  -0.00025   2.06849
   R15        2.07221   0.00049   0.00004   0.00162   0.00166   2.07388
   R16        2.62331  -0.00024   0.00002  -0.00054  -0.00052   2.62279
   R17        2.05577  -0.00037  -0.00002  -0.00042  -0.00044   2.05534
   R18        2.05490  -0.00104  -0.00011  -0.00121  -0.00132   2.05359
    A1        1.91330   0.00109   0.00084   0.00529   0.00610   1.91940
    A2        1.82417   0.00331   0.00054   0.00532   0.00588   1.83004
    A3        2.14697  -0.00162  -0.00053  -0.00203  -0.00262   2.14435
    A4        1.77566  -0.00739  -0.00180  -0.01501  -0.01679   1.75887
    A5        1.91249   0.00263   0.00021   0.00747   0.00766   1.92015
    A6        1.85144   0.00055   0.00041  -0.00500  -0.00456   1.84688
    A7        2.09828  -0.00428  -0.00109  -0.00579  -0.00714   2.09114
    A8        2.05838   0.00396   0.00115   0.00623   0.00713   2.06551
    A9        2.12328   0.00037   0.00001   0.00238   0.00225   2.12554
   A10        2.07355  -0.00065  -0.00003  -0.00322  -0.00323   2.07031
   A11        2.08982   0.00051   0.00018   0.00124   0.00136   2.09118
   A12        2.11967   0.00014  -0.00014   0.00222   0.00202   2.12169
   A13        2.10845   0.00129   0.00012   0.00375   0.00386   2.11230
   A14        2.08435  -0.00051  -0.00001   0.00003   0.00000   2.08436
   A15        2.09033  -0.00078  -0.00011  -0.00368  -0.00381   2.08653
   A16        2.10440   0.00047   0.00005   0.00112   0.00118   2.10558
   A17        2.07884  -0.00118  -0.00018  -0.00317  -0.00337   2.07547
   A18        2.09971   0.00070   0.00013   0.00208   0.00222   2.10193
   A19        1.94399   0.00045   0.00007   0.00309   0.00315   1.94714
   A20        1.94412   0.00031   0.00007   0.00264   0.00270   1.94681
   A21        1.92590   0.00098   0.00015   0.00337   0.00352   1.92941
   A22        1.88421   0.00004   0.00004   0.00452   0.00454   1.88875
   A23        1.88211  -0.00097  -0.00018  -0.00705  -0.00723   1.87488
   A24        1.88107  -0.00092  -0.00016  -0.00720  -0.00736   1.87372
   A25        2.10892   0.00074   0.00018   0.00235   0.00252   2.11144
   A26        2.08790  -0.00066  -0.00009  -0.00223  -0.00232   2.08558
   A27        2.08637  -0.00007  -0.00009  -0.00012  -0.00021   2.08616
[...]
    18  H    0.007806  -0.003248  -0.039283   0.003995   0.000347   0.002880
               7          8          9         10         11         12
     1  O    0.000000   0.000609   0.005329  -0.035304  -0.038634   0.000060
     2  S    0.000004   0.002029  -0.029376   0.203858   0.445393  -0.003243
     3  C    0.000307  -0.047891   0.409742  -0.045080  -0.060534  -0.039287
     4  C    0.006359  -0.023316  -0.035528  -0.001341   0.005330   0.364741
     5  C   -0.058060  -0.045289  -0.023319  -0.000031   0.000609  -0.028459
     6  C    0.365036   0.497749  -0.044382  -0.000007  -0.000007   0.002880
     7  C    5.247302  -0.058028   0.006360  -0.000000   0.000000  -0.000136
     8  C   -0.058028   5.108576   0.413326  -0.000031  -0.000048   0.000347
     9  C    0.006360   0.413326   5.126945  -0.001341   0.001472   0.003995
    10  F   -0.000000  -0.000031  -0.001341   9.220055  -0.035307  -0.000128
    11  O    0.000000  -0.000048   0.001472  -0.035307   8.163841   0.007801
    12  H   -0.000136   0.000347   0.003995  -0.000128   0.007801   0.464534
    13  H   -0.007160   0.005003   0.000399   0.000000   0.000002  -0.004007
    14  H    0.369145   0.003208  -0.000142   0.000000   0.000000  -0.000005
    15  H    0.369160  -0.002229   0.000163   0.000000  -0.000000   0.000002
    16  H    0.361579  -0.000688  -0.000068  -0.000000   0.000000   0.000002
    17  H   -0.007164   0.368273  -0.040616   0.000000   0.000000   0.000014
    18  H   -0.000136  -0.028458   0.364737  -0.000127   0.000060  -0.000121
              13         14         15         16         17         18
     1  O    0.000000  -0.000000   0.000000   0.000000   0.000002   0.007806
     2  S   -0.000032   0.000000   0.000000  -0.000001  -0.000032  -0.003248
     3  C    0.004520   0.000008   0.000008  -0.000034   0.004520  -0.039283
     4  C   -0.040615   0.000162  -0.000142  -0.000068   0.000399   0.003995
     5  C    0.368281  -0.002226   0.003211  -0.000690   0.005004   0.000347
     6  C   -0.038846  -0.033176  -0.033172  -0.036685  -0.038836   0.002880
     7  C   -0.007160   0.369145   0.369160   0.361579  -0.007164  -0.000136
     8  C    0.005003   0.003208  -0.002229  -0.000688   0.368273  -0.028458
     9  C    0.000399  -0.000142   0.000163  -0.000068  -0.040616   0.364737
    10  F    0.000000   0.000000   0.000000  -0.000000   0.000000  -0.000127
    11  O    0.000002   0.000000  -0.000000   0.000000   0.000000   0.000060
    12  H   -0.004007  -0.000005   0.000002   0.000002   0.000014  -0.000121
    13  H    0.515983   0.004016   0.000040   0.000423  -0.000139   0.000014
    14  H    0.004016   0.521224  -0.023969  -0.030632   0.000040   0.000002
    15  H    0.000040  -0.023969   0.521189  -0.030614   0.004022  -0.000005
    16  H    0.000423  -0.030632  -0.030614   0.533261   0.000422   0.000002
    17  H   -0.000139   0.000040   0.004022   0.000422   0.515979  -0.004007
    18  H    0.000014   0.000002  -0.000005   0.000002  -0.004007   0.464522
 Mulliken charges:
               1
     1  O   -0.489991
     2  S    1.227834
     3  C   -0.211148
     4  C   -0.157686
     5  C   -0.193140
     6  C    0.130000
     7  C   -0.594569
     8  C   -0.193145
     9  C   -0.157695
    10  F   -0.305216
    11  O   -0.489977
    12  H    0.231011
    13  H    0.192116
    14  H    0.192345
    15  H    0.192336
    16  H    0.203789
    17  H    0.192117
    18  H    0.231018
 Sum of Mulliken charges =  -0.00000
 Mulliken charges with hydrogens summed into heavy atoms:
               1
     1  O   -0.489991
     2  S    1.227834
     3  C   -0.211148
     4  C    0.073325
     5  C   -0.001024
     6  C    0.130000
     7  C   -0.006100
     8  C   -0.001028
     9  C    0.073323
    10  F   -0.305216
    11  O   -0.489977
 Electronic spatial extent (au):  <R**2>=           2182.1272
 Charge=              0.0000 electrons
 Dipole moment (field-independent basis, Debye):
    X=             -6.3492    Y=             -0.0004    Z=             -0.6625  Tot=              6.3837
 Quadrupole moment (field-independent basis, Debye-Ang):
   XX=            -70.3076   YY=            -65.7969   ZZ=            -72.5877
   XY=             -0.0004   XZ=             -2.3406   YZ=              0.0006
 Traceless Quadrupole moment (field-independent basis, Debye-Ang):
   XX=             -0.7435   YY=              3.7672   ZZ=             -3.0237
   XY=             -0.0004   XZ=             -2.3406   YZ=              0.0006
 Octapole moment (field-independent basis, Debye-Ang**2):
  XXX=            -22.7298  YYY=             -0.0027  ZZZ=             -4.8953  XYY=             -8.1269
  XXY=             -0.0019  XXZ=             -8.5932  XZZ=             10.6569  YZZ=              0.0000
  YYZ=             -5.9966  XYZ=              0.0015
 Hexadecapole moment (field-independent basis, Debye-Ang**3):
 XXXX=          -2068.1635 YYYY=           -393.1142 ZZZZ=           -161.7654 XXXY=             -0.0032
 XXXZ=            -32.1486 YYYX=             -0.0143 YYYZ=              0.0023 ZZZX=            -14.9975
 ZZZY=              0.0029 XXYY=           -430.4851 XXZZ=           -395.5826 YYZZ=           -104.6160
 XXYZ=              0.0044 YYXZ=             -9.5872 ZZXY=              0.0082
 N-N= 7.271551677752D+02 E-N=-3.617319933516D+03  KE= 9.133538277401D+02
 Evaluate density.
 Using the total density.
 Monte-Carlo method of calculating molar volume:
 based on  0.001 e/bohr**3 density envelope.
 Number of points per bohr**3 =   20 CutOff= 1.00D-04
 Using the CI density.
 There are       400 points.  Will hold       400 in memory.
 LenV=   805197896 MDV=   805306368.
 Box volume = 8006.969 fraction occupied=0.152
 Integrated density= 7.3516506630517384D+01 error=-1.6483493369482616D+01
 Molar volume = 1221.063 bohr**3/mol (108.966 cm**3/mol)
 Recommended a0 for SCRF calculation =  4.36 angstrom (  8.24 bohr)
 ******************************Gaussian NBO Version 3.1******************************
             N A T U R A L   A T O M I C   O R B I T A L   A N D
          N A T U R A L   B O N D   O R B I T A L   A N A L Y S I S
 ******************************Gaussian NBO Version 3.1******************************
       /RESON  / : Allow strongly delocalized NBO set

 Analyzing the CI density

 Job title: IZZYABADQVQHLC-UHFFFAOYSA-N_conf_0                              

 Storage needed:    101640 in NPA ( 805304568 available)


 NATURAL POPULATIONS:  Natural atomic orbital occupancies 
                                                          
   NAO  Atom  No  lang   Type(AO)    Occupancy
 --------------------------------------------
     1    O    1  S      Cor( 1S)     1.99988
     2    O    1  S      Val( 2S)     1.82740
     3    O    1  S      Ryd( 3S)     0.00117
     4    O    1  S      Ryd( 4S)     0.00012
     5    O    1  px     Val( 2p)     1.76642
     6    O    1  px     Ryd( 3p)     0.00081
     7    O    1  py     Val( 2p)     1.57224
     8    O    1  py     Ryd( 3p)     0.00073
     9    O    1  pz     Val( 2p)     1.71852
    10    O    1  pz     Ryd( 3p)     0.00064
    11    O    1  dxy    Ryd( 3d)     0.00518
    12    O    1  dxz    Ryd( 3d)     0.00173
    13    O    1  dyz    Ryd( 3d)     0.00524
    14    O    1  dx2y2  Ryd( 3d)     0.00517
    15    O    1  dz2    Ryd( 3d)     0.00274
 
    16    S    2  S      Cor( 1S)     2.00000
    17    S    2  S      Cor( 2S)     1.99900
    18    S    2  S      Val( 3S)     1.02106
    19    S    2  S      Ryd( 4S)     0.00462
    20    S    2  S      Ryd( 5S)     0.00033
    21    S    2  px     Cor( 2p)     1.99990
    22    S    2  px     Val( 3p)     0.88131
    23    S    2  px     Ryd( 4p)     0.01012
    24    S    2  py     Cor( 2p)     1.99990
    25    S    2  py     Val( 3p)     0.68885
    26    S    2  py     Ryd( 4p)     0.01494
    27    S    2  pz     Cor( 2p)     1.99986
    28    S    2  pz     Val( 3p)     0.78989
    29    S    2  pz     Ryd( 4p)     0.00784
    30    S    2  dxy    Ryd( 3d)     0.03284
    31    S    2  dxz    Ryd( 3d)     0.01946
    32    S    2  dyz    Ryd( 3d)     0.03678
    33    S    2  dx2y2  Ryd( 3d)     0.04548
    34    S    2  dz2    Ryd( 3d)     0.03573
 
    35    C    3  S      Cor( 1S)     1.99874
    36    C    3  S      Val( 2S)     0.98677
    37    C    3  S      Ryd( 3S)     0.00233
    38    C    3  S      Ryd( 4S)     0.00007
    39    C    3  px     Val( 2p)     1.11589
    40    C    3  px     Ryd( 3p)     0.00686
    41    C    3  py     Val( 2p)     1.11834
    42    C    3  py     Ryd( 3p)     0.01027
    43    C    3  pz     Val( 2p)     1.12828
    44    C    3  pz     Ryd( 3p)     0.00461
    45    C    3  dxy    Ryd( 3d)     0.00057
    46    C    3  dxz    Ryd( 3d)     0.00076
    47    C    3  dyz    Ryd( 3d)     0.00087
    48    C    3  dx2y2  Ryd( 3d)     0.00093
    49    C    3  dz2    Ryd( 3d)     0.00042
 
    50    C    4  S      Cor( 1S)     1.99904
    51    C    4  S      Val( 2S)     0.97179
    52    C    4  S      Ryd( 3S)     0.00108
    53    C    4  S      Ryd( 4S)     0.00005
    54    C    4  px     Val( 2p)     1.09617
    55    C    4  px     Ryd( 3p)     0.00591
    56    C    4  py     Val( 2p)     1.16920
    57    C    4  py     Ryd( 3p)     0.00544
    58    C    4  pz     Val( 2p)     0.93021
    59    C    4  pz     Ryd( 3p)     0.00523
    60    C    4  dxy    Ryd( 3d)     0.00082
    61    C    4  dxz    Ryd( 3d)     0.00074
    62    C    4  dyz    Ryd( 3d)     0.00046
    63    C    4  dx2y2  Ryd( 3d)     0.00063
    64    C    4  dz2    Ryd( 3d)     0.00044
 
    65    C    5  S      Cor( 1S)     1.99907
    66    C    5  S      Val( 2S)     0.96920
    67    C    5  S      Ryd( 3S)     0.00072
    68    C    5  S      Ryd( 4S)     0.00005
    69    C    5  px     Val( 2p)     1.08285
    70    C    5  px     Ryd( 3p)     0.00420
    71    C    5  py     Val( 2p)     1.16638
    72    C    5  py     Ryd( 3p)     0.00497
    73    C    5  pz     Val( 2p)     0.95465
    74    C    5  pz     Ryd( 3p)     0.00379
    75    C    5  dxy    Ryd( 3d)     0.00079
    76    C    5  dxz    Ryd( 3d)     0.00068
    77    C    5  dyz    Ryd( 3d)     0.00047
    78    C    5  dx2y2  Ryd( 3d)     0.00073
    79    C    5  dz2    Ryd( 3d)     0.00043
 
    80    C    6  S      Cor( 1S)     1.99910
    81    C    6  S      Val( 2S)     0.89382
    82    C    6  S      Ryd( 3S)     0.00054
    83    C    6  S      Ryd( 4S)     0.00005
    84    C    6  px     Val( 2p)     1.06614
    85    C    6  px     Ryd( 3p)     0.00475
    86    C    6  py     Val( 2p)     1.07643
    87    C    6  py     Ryd( 3p)     0.00406
    88    C    6  pz     Val( 2p)     1.00005
    89    C    6  pz     Ryd( 3p)     0.00319
    90    C    6  dxy    Ryd( 3d)     0.00086
    91    C    6  dxz    Ryd( 3d)     0.00068
    92    C    6  dyz    Ryd( 3d)     0.00066
    93    C    6  dx2y2  Ryd( 3d)     0.00061
    94    C    6  dz2    Ryd( 3d)     0.00034
 
    95    C    7  S      Cor( 1S)     1.99939
    96    C    7  S      Val( 2S)     1.10364
    97    C    7  S      Ryd( 3S)     0.00033
    98    C    7  S      Ryd( 4S)     0.00001
    99    C    7  px     Val( 2p)     1.08762
   100    C    7  px     Ryd( 3p)     0.00114
   101    C    7  py     Val( 2p)     1.27052
   102    C    7  py     Ryd( 3p)     0.00314
   103    C    7  pz     Val( 2p)     1.25386
   104    C    7  pz     Ryd( 3p)     0.00039
   105    C    7  dxy    Ryd( 3d)     0.00051
   106    C    7  dxz    Ryd( 3d)     0.00074
   107    C    7  dyz    Ryd( 3d)     0.00062
   108    C    7  dx2y2  Ryd( 3d)     0.00069
   109    C    7  dz2    Ryd( 3d)     0.00067
 
   110    C    8  S      Cor( 1S)     1.99907
   111    C    8  S      Val( 2S)     0.96920
   112    C    8  S      Ryd( 3S)     0.00072
   113    C    8  S      Ryd( 4S)     0.00005
   114    C    8  px     Val( 2p)     1.08285
   115    C    8  px     Ryd( 3p)     0.00420
   116    C    8  py     Val( 2p)     1.16638
   117    C    8  py     Ryd( 3p)     0.00497
   118    C    8  pz     Val( 2p)     0.95463
   119    C    8  pz     Ryd( 3p)     0.00379
   120    C    8  dxy    Ryd( 3d)     0.00079
   121    C    8  dxz    Ryd( 3d)     0.00068
   122    C    8  dyz    Ryd( 3d)     0.00047
   123    C    8  dx2y2  Ryd( 3d)     0.00073
   124    C    8  dz2    Ryd( 3d)     0.00043
 
   125    C    9  S      Cor( 1S)     1.99904
   126    C    9  S      Val( 2S)     0.97179
   127    C    9  S      Ryd( 3S)     0.00108
   128    C    9  S      Ryd( 4S)     0.00005
   129    C    9  px     Val( 2p)     1.09616
   130    C    9  px     Ryd( 3p)     0.00591
   131    C    9  py     Val( 2p)     1.16920
   132    C    9  py     Ryd( 3p)     0.00544
   133    C    9  pz     Val( 2p)     0.93023
   134    C    9  pz     Ryd( 3p)     0.00523
   135    C    9  dxy    Ryd( 3d)     0.00082
   136    C    9  dxz    Ryd( 3d)     0.00074
   137    C    9  dyz    Ryd( 3d)     0.00046
   138    C    9  dx2y2  Ryd( 3d)     0.00063
   139    C    9  dz2    Ryd( 3d)     0.00044
 
   140    F   10  S      Cor( 1S)     1.99997
   141    F   10  S      Val( 2S)     1.92971
   142    F   10  S      Ryd( 3S)     0.00263
   143    F   10  S      Ryd( 4S)     0.00013
   144    F   10  px     Val( 2p)     1.93794
   145    F   10  px     Ryd( 3p)     0.00016
   146    F   10  py     Val( 2p)     1.95301
   147    F   10  py     Ryd( 3p)     0.00006
   148    F   10  pz     Val( 2p)     1.68011
   149    F   10  pz     Ryd( 3p)     0.00048
   150    F   10  dxy    Ryd( 3d)     0.00016
   151    F   10  dxz    Ryd( 3d)     0.00190
   152    F   10  dyz    Ryd( 3d)     0.00177
   153    F   10  dx2y2  Ryd( 3d)     0.00013
   154    F   10  dz2    Ryd( 3d)     0.00232
 
   155    O   11  S      Cor( 1S)     1.99988
   156    O   11  S      Val( 2S)     1.82740
   157    O   11  S      Ryd( 3S)     0.00117
   158    O   11  S      Ryd( 4S)     0.00012
   159    O   11  px     Val( 2p)     1.76639
   160    O   11  px     Ryd( 3p)     0.00081
   161    O   11  py     Val( 2p)     1.57233
   162    O   11  py     Ryd( 3p)     0.00073
   163    O   11  pz     Val( 2p)     1.71845
   164    O   11  pz     Ryd( 3p)     0.00064
   165    O   11  dxy    Ryd( 3d)     0.00518
   166    O   11  dxz    Ryd( 3d)     0.00173
   167    O   11  dyz    Ryd( 3d)     0.00524
   168    O   11  dx2y2  Ryd( 3d)     0.00517
   169    O   11  dz2    Ryd( 3d)     0.00274
 
   170    H   12  S      Val( 1S)     0.72478
   171    H   12  S      Ryd( 2S)     0.00121
 
   172    H   13  S      Val( 1S)     0.74926
   173    H   13  S      Ryd( 2S)     0.00091
 
   174    H   14  S      Val( 1S)     0.74477
   175    H   14  S      Ryd( 2S)     0.00110
 
   176    H   15  S      Val( 1S)     0.74478
   177    H   15  S      Ryd( 2S)     0.00110
 
   178    H   16  S      Val( 1S)     0.73723
   179    H   16  S      Ryd( 2S)     0.00169
 
   180    H   17  S      Val( 1S)     0.74926
   181    H   17  S      Ryd( 2S)     0.00091
 
   182    H   18  S      Val( 1S)     0.72478
   183    H   18  S      Ryd( 2S)     0.00121

 WARNING:  1 low occupancy (<1.9990e) core orbital  found on  C    3


 Summary of Natural Population Analysis:                  
                                                          
                                       Natural Population 
                Natural  -----------------------------------------------
    Atom  No    Charge         Core      Valence    Rydberg      Total
 -----------------------------------------------------------------------
      O    1   -0.90799      1.99988     6.88459    0.02353     8.90799
      S    2    2.41205      9.99867     3.38111    0.20817    13.58795
      C    3   -0.37571      1.99874     4.34928    0.02770     6.37571
      C    4   -0.18721      1.99904     4.16737    0.02080     6.18721
      C    5   -0.18898      1.99907     4.17309    0.01682     6.18898
      C    6   -0.05126      1.99910     4.03643    0.01572     6.05126
      C    7   -0.72325      1.99939     4.71563    0.00823     6.72325
      C    8   -0.18896      1.99907     4.17307    0.01682     6.18896
      C    9   -0.18723      1.99904     4.16739    0.02080     6.18723
      F   10   -0.51050      1.99997     7.50078    0.00975     9.51050
      O   11   -0.90798      1.99988     6.88457    0.02353     8.90798
      H   12    0.27400      0.00000     0.72478    0.00121     0.72600
      H   13    0.24984      0.00000     0.74926    0.00091     0.75016
      H   14    0.25412      0.00000     0.74477    0.00110     0.74588
      H   15    0.25411      0.00000     0.74478    0.00110     0.74589
      H   16    0.26108      0.00000     0.73723    0.00169     0.73892
      H   17    0.24984      0.00000     0.74926    0.00091     0.75016
      H   18    0.27401      0.00000     0.72478    0.00121     0.72599
 =======================================================================
   * Total *   -0.00000     29.99186    59.60815    0.39999    90.00000

                                 Natural Population      
 --------------------------------------------------------
   Core                      29.99186 ( 99.9729% of  30)
   Valence                   59.60815 ( 99.3469% of  60)
   Natural Minimal Basis     89.60001 ( 99.5556% of  90)
   Natural Rydberg Basis      0.39999 (  0.4444% of  90)
 --------------------------------------------------------

    Atom  No          Natural Electron Configuration
 ----------------------------------------------------------------------------
      O    1      [core]2S( 1.83)2p( 5.06)3d( 0.02)
      S    2      [core]3S( 1.02)3p( 2.36)3d( 0.17)4p( 0.03)
      C    3      [core]2S( 0.99)2p( 3.36)3p( 0.02)
      C    4      [core]2S( 0.97)2p( 3.20)3p( 0.02)
      C    5      [core]2S( 0.97)2p( 3.20)3p( 0.01)
      C    6      [core]2S( 0.89)2p( 3.14)3p( 0.01)
      C    7      [core]2S( 1.10)2p( 3.61)
      C    8      [core]2S( 0.97)2p( 3.20)3p( 0.01)
      C    9      [core]2S( 0.97)2p( 3.20)3p( 0.02)
      F   10      [core]2S( 1.93)2p( 5.57)3d( 0.01)
      O   11      [core]2S( 1.83)2p( 5.06)3d( 0.02)
      H   12            1S( 0.72)
      H   13            1S( 0.75)
      H   14            1S( 0.74)
      H   15            1S( 0.74)
      H   16            1S( 0.74)
      H   17            1S( 0.75)
      H   18            1S( 0.72)


 NBO analysis skipped by request.
 1\1\GINC-DELLA-R3C2N4\SP\RAPFD TD-FC\6-31G(d)\C7H7F1O2S1\SHIVAANI\28-J
 an-2024\0\\# TD(NStates=10, Root=1) APFD/6-31G* volume pop=NPA density
 =current Geom=AllCheck Guess=Read\\IZZYABADQVQHLC-UHFFFAOYSA-N_conf_0\
 \0,1\O,0,3.4600753549,1.1167626387,1.4597163492\S,0,3.0678617129,0.159
 8926657,0.4505288613\C,0,1.3133833396,0.0606645634,0.3547107977\C,0,0.
 7292932539,-1.0704731964,-0.2109058965\C,0,-0.6565828903,-1.134030265,
 -0.28903979\C,0,-1.4564915367,-0.0899702345,0.1910170264\C,0,-2.954901
 6608,-0.1854969074,0.1314582508\C,0,-0.8360948532,1.0307704572,0.75615
 08642\C,0,0.5479743518,1.1163253883,0.8448673385\F,0,3.3794492002,0.86
 78201663,-0.962979164\O,0,3.6489580298,-1.1600310844,0.3610441147\H,0,
 1.3531096598,-1.8823824345,-0.5721922145\H,0,-1.1277901991,-2.01071061
 78,-0.7273999803\H,0,-3.2862648589,-0.7892210878,-0.7191878261\H,0,-3.
 41836536,0.8027036497,0.0506120944\H,0,-3.3489567264,-0.6578218851,1.0
 405642823\H,0,-1.4476240369,1.8464555001,1.1349026636\H,0,1.0329672194
 ,1.9787426833,1.2919577437\\Version=ES64L-G16RevA.03\State=1-A\HF=-918
 .8774969\RMSD=6.676e-09\Dipole=-2.4922298,-0.0595663,-0.3049682\Quadru
 pole=-0.5507175,1.9359461,-1.3852286,0.5323888,-1.6789063,1.8822804\PG
 =C01 [X(C7H7F1O2S1)]\\@


 We make a living by what we get,
 we make a life by what we give.
                   -- Sir Winston Churchill
 Job cpu time:       0 days  0 hours 12 minutes 13.0 seconds.
 Elapsed time:       0 days  0 hours  4 minutes  9.6 seconds.
 File lengths (MBytes):  RWF=    324 Int=      0 D2E=      0 Chk=     20 Scr=      1
 Normal termination of Gaussian 16 at Sun Jan 28 15:22:38 2024.
