 Entering Gaussian System, Link 0=g16
 Input=RVBMBNJSTWFMQY-UHFFFAOYSA-N_conf_0.gjf
 Output=RVBMBNJSTWFMQY-UHFFFAOYSA-N_conf_0.log
 Initial command:
 /opt/export/g16/l1.exe "/tmp/Gau-607698.inp" -scrdir="/tmp/"
 Entering Link 1 = /opt/export/g16/l1.exe PID=    607699.
  
 Copyright (c) 1988,1990,1992,1993,1995,1998,2003,2009,2016,
            Gaussian, Inc.  All Rights Reserved.
  
 This is part of the Gaussian(R) 16 program.  It is based on
 the Gaussian(R) 09 system (copyright 2009, Gaussian, Inc.),
 the Gaussian(R) 03 system (copyright 2003, Gaussian, Inc.),
 the Gaussian(R) 98 system (copyright 1998, Gaussian, Inc.),
 the Gaussian(R) 94 system (copyright 1995, Gaussian, Inc.),
 the Gaussian 92(TM) system (copyright 1992, Gaussian, Inc.),
 the Gaussian 90(TM) system (copyright 1990, Gaussian, Inc.),
 the Gaussian 88(TM) system (copyright 1988, Gaussian, Inc.),
 the Gaussian 86(TM) system (copyright 1986, Carnegie Mellon
 University), and the Gaussian 82(TM) system (copyright 1983,
 Carnegie Mellon University). Gaussian is a federally registered
 trademark of Gaussian, Inc.
  
 This software contains proprietary and confidential information,
 including trade secrets, belonging to Gaussian, Inc.
  
 This software is provided under written license and may be
 used, copied, transmitted, or stored only in accord with that
 written license.
  
 The following legend is applicable only to US Government
 contracts under FAR:
  
                    RESTRICTED RIGHTS LEGEND
  
 Use, reproduction and disclosure by the US Government is
 subject to restrictions as set forth in subparagraphs (a)
 and (c) of the Commercial Computer Software - Restricted
 Rights clause in FAR 52.227-19.
  
 Gaussian, Inc.
 340 Quinnipiac St., Bldg. 40, Wallingford CT 06492
  
  
 ---------------------------------------------------------------
 Warning -- This program may not be used in any manner that
 competes with the business of Gaussian, Inc. or will provide
 assistance to any competitor of Gaussian, Inc.  The licensee
 of this program is prohibited from giving any competitor of
 Gaussian, Inc. access to this program.  By using this program,
 the user acknowledges that Gaussian, Inc. is engaged in the
 business of creating and licensing software in the field of
 computational chemistry and represents and warrants to the
 licensee that it is not a competitor of Gaussian, Inc. and that
 it will not use this program in any manner prohibited above.
 ---------------------------------------------------------------
  

 Cite this work as:
 Gaussian 16, Revision A.03,
 M. J. Frisch, G. W. Trucks, H. B. Schlegel, G. E. Scuseria, 
 M. A. Robb, J. R. Cheeseman, G. Scalmani, V. Barone, 
 G. A. Petersson, H. Nakatsuji, X. Li, M. Caricato, A. V. Marenich, 
 J. Bloino, B. G. Janesko, R. Gomperts, B. Mennucci, H. P. Hratchian, 
 J. V. Ortiz, A. F. Izmaylov, J. L. Sonnenberg, D. Williams-Young, 
 F. Ding, F. Lipparini, F. Egidi, J. Goings, B. Peng, A. Petrone, 
 T. Henderson, D. Ranasinghe, V. G. Zakrzewski, J. Gao, N. Rega, 
 G. Zheng, W. Liang, M. Hada, M. Ehara, K. Toyota, R. Fukuda, 
 J. Hasegawa, M. Ishida, T. Nakajima, Y. Honda, O. Kitao, H. Nakai, 
 T. Vreven, K. Throssell, J. A. Montgomery, Jr., J. E. Peralta, 
 F. Ogliaro, M. J. Bearpark, J. J. Heyd, E. N. Brothers, K. N. Kudin, 
 V. N. Staroverov, T. A. Keith, R. Kobayashi, J. Normand, 
 K. Raghavachari, A. P. Rendell, J. C. Burant, S. S. Iyengar, 
 J. Tomasi, M. Cossi, J. M. Millam, M. Klene, C. Adamo, R. Cammi, 
 J. W. Ochterski, R. L. Martin, K. Morokuma, O. Farkas, 
 J. B. Foresman, and D. J. Fox, Gaussian, Inc., Wallingford CT, 2016.
 
 ******************************************
 Gaussian 16:  ES64L-G16RevA.03 25-Dec-2016
                28-Jan-2024 
 ******************************************
 %nprocshared=4
 Will use up to    4 processors via shared memory.
 %mem=8GB
 %Chk=RVBMBNJSTWFMQY-UHFFFAOYSA-N_conf_0_0.chk
 --------------------------------
 # opt=CalcFc APFD/6-31G* scf=xqc
 --------------------------------
 1/10=4,18=20,19=15,26=3,38=1/1,3;
 2/9=110,12=2,17=6,18=5,40=1/2;
 3/5=1,6=6,7=1,11=2,25=1,30=1,71=2,74=-44,140=1/1,2,3;
 4//1;
 5/5=2,8=3,13=1,38=5/2,8;
 8/6=4,10=90,11=11/1;
 11/6=1,8=1,9=11,15=111,16=1/1,2,10;
 10/6=1,13=1/2;
 6/7=2,8=2,9=2,10=2,28=1/1;
 7/10=1,18=20,25=1/1,2,3,16;
 1/10=4,18=20,19=15,26=3/3(2);
 2/9=110/2;
 99//99;
 2/9=110/2;
 3/5=1,6=6,7=1,11=2,25=1,30=1,71=1,74=-44/1,2,3;
 4/5=5,16=3,69=1/1;
 5/5=2,8=3,13=1,38=5/2,8;
 7//1,2,3,16;
 1/18=20,19=15,26=3/3(-5);
 2/9=110/2;
 6/7=2,8=2,9=2,10=2,19=2,28=1/1;
 99/9=1/99;
 ----------------------------------
 RVBMBNJSTWFMQY-UHFFFAOYSA-N_conf_0
 ----------------------------------
 Symbolic Z-matrix:
 Charge =  0 Multiplicity = 1
 F                     4.32833  -0.96857  -0.30146 
 S                     4.07924   0.24035   0.70438 
 C                     2.36538   0.21121   1.07549 
 N                     1.83997   0.2621    2.28365 
 N                     0.47612   0.19035   2.15662 
 C                     0.1756    0.0686    0.8774 
 C                    -1.17519  -0.05849   0.3357 
 C                    -1.50969  -1.06402  -0.58213 
 C                    -2.81058  -1.16176  -1.0828 
 C                    -3.78975  -0.26317  -0.66307 
 C                    -3.47368   0.72731   0.26449 
 C                    -2.17401   0.82508   0.76577 
 N                     1.34828   0.12427   0.15668 
 C                     1.4816    0.1397   -1.27815 
 O                     4.81294  -0.08292   1.9074 
 O                     4.30226   1.44379  -0.07035 
 H                    -0.77202  -1.79625  -0.89977 
 H                    -3.06451  -1.94701  -1.79069 
 H                    -4.8036   -0.34299  -1.04774 
 H                    -4.23948   1.41963   0.60552 
 H                    -1.94214   1.59511   1.50015 
 H                     1.61458  -0.88961  -1.61976 
 H                     0.58984   0.5811   -1.7291 
 H                     2.34051   0.7462   -1.56825 
 

 GradGradGradGradGradGradGradGradGradGradGradGradGradGradGradGradGradGrad
 Berny optimization.
 Initialization pass.
                           ----------------------------
                           !    Initial Parameters    !
                           ! (Angstroms and Degrees)  !
 --------------------------                            --------------------------
 ! Name  Definition              Value          Derivative Info.                !
 --------------------------------------------------------------------------------
 ! R1    R(1,2)                  1.5923         calculate D2E/DX2 analytically  !
 ! R2    R(2,3)                  1.7538         calculate D2E/DX2 analytically  !
 ! R3    R(2,15)                 1.4457         calculate D2E/DX2 analytically  !
 ! R4    R(2,16)                 1.4485         calculate D2E/DX2 analytically  !
 ! R5    R(3,4)                  1.3184         calculate D2E/DX2 analytically  !
 ! R6    R(3,13)                 1.3734         calculate D2E/DX2 analytically  !
 ! R7    R(4,5)                  1.3716         calculate D2E/DX2 analytically  !
 ! R8    R(5,6)                  1.3197         calculate D2E/DX2 analytically  !
 ! R9    R(6,7)                  1.4609         calculate D2E/DX2 analytically  !
 ! R10   R(6,13)                 1.3776         calculate D2E/DX2 analytically  !
 ! R11   R(7,8)                  1.4019         calculate D2E/DX2 analytically  !
 ! R12   R(7,12)                 1.4012         calculate D2E/DX2 analytically  !
 ! R13   R(8,9)                  1.3973         calculate D2E/DX2 analytically  !
 ! R14   R(8,17)                 1.0868         calculate D2E/DX2 analytically  !
 ! R15   R(9,10)                 1.3937         calculate D2E/DX2 analytically  !
 ! R16   R(9,18)                 1.0873         calculate D2E/DX2 analytically  !
 ! R17   R(10,11)                1.3933         calculate D2E/DX2 analytically  !
 ! R18   R(10,19)                1.0873         calculate D2E/DX2 analytically  !
 ! R19   R(11,12)                1.3964         calculate D2E/DX2 analytically  !
 ! R20   R(11,20)                1.0872         calculate D2E/DX2 analytically  !
 ! R21   R(12,21)                1.0891         calculate D2E/DX2 analytically  !
 ! R22   R(13,14)                1.4411         calculate D2E/DX2 analytically  !
 ! R23   R(14,22)                1.0926         calculate D2E/DX2 analytically  !
 ! R24   R(14,23)                1.0924         calculate D2E/DX2 analytically  !
 ! R25   R(14,24)                1.0908         calculate D2E/DX2 analytically  !
 ! A1    A(1,2,3)              105.8983         calculate D2E/DX2 analytically  !
 ! A2    A(1,2,15)             106.0509         calculate D2E/DX2 analytically  !
 ! A3    A(1,2,16)             105.5953         calculate D2E/DX2 analytically  !
 ! A4    A(3,2,15)             108.4301         calculate D2E/DX2 analytically  !
 ! A5    A(3,2,16)             106.1071         calculate D2E/DX2 analytically  !
 ! A6    A(15,2,16)            123.5522         calculate D2E/DX2 analytically  !
 ! A7    A(2,3,4)              125.6398         calculate D2E/DX2 analytically  !
 ! A8    A(2,3,13)             125.6747         calculate D2E/DX2 analytically  !
 ! A9    A(4,3,13)             108.6847         calculate D2E/DX2 analytically  !
 ! A10   A(3,4,5)              108.0212         calculate D2E/DX2 analytically  !
 ! A11   A(4,5,6)              108.7252         calculate D2E/DX2 analytically  !
 ! A12   A(5,6,7)              125.3116         calculate D2E/DX2 analytically  !
 ! A13   A(5,6,13)             108.0324         calculate D2E/DX2 analytically  !
 ! A14   A(7,6,13)             126.6286         calculate D2E/DX2 analytically  !
 ! A15   A(6,7,8)              121.7205         calculate D2E/DX2 analytically  !
 ! A16   A(6,7,12)             119.3702         calculate D2E/DX2 analytically  !
 ! A17   A(8,7,12)             118.8912         calculate D2E/DX2 analytically  !
 ! A18   A(7,8,9)              120.4563         calculate D2E/DX2 analytically  !
 ! A19   A(7,8,17)             120.839          calculate D2E/DX2 analytically  !
 ! A20   A(9,8,17)             118.688          calculate D2E/DX2 analytically  !
 ! A21   A(8,9,10)             120.0709         calculate D2E/DX2 analytically  !
 ! A22   A(8,9,18)             120.0803         calculate D2E/DX2 analytically  !
 ! A23   A(10,9,18)            119.8438         calculate D2E/DX2 analytically  !
 ! A24   A(9,10,11)            119.9638         calculate D2E/DX2 analytically  !
 ! A25   A(9,10,19)            120.081          calculate D2E/DX2 analytically  !
 ! A26   A(11,10,19)           119.9493         calculate D2E/DX2 analytically  !
 ! A27   A(10,11,12)           119.9921         calculate D2E/DX2 analytically  !
 ! A28   A(10,11,20)           120.1132         calculate D2E/DX2 analytically  !
 ! A29   A(12,11,20)           119.8927         calculate D2E/DX2 analytically  !
 ! A30   A(7,12,11)            120.6059         calculate D2E/DX2 analytically  !
 ! A31   A(7,12,21)            120.0708         calculate D2E/DX2 analytically  !
 ! A32   A(11,12,21)           119.3229         calculate D2E/DX2 analytically  !
 ! A33   A(3,13,6)             106.4375         calculate D2E/DX2 analytically  !
 ! A34   A(3,13,14)            126.6482         calculate D2E/DX2 analytically  !
 ! A35   A(6,13,14)            126.8764         calculate D2E/DX2 analytically  !
 ! A36   A(13,14,22)           108.2079         calculate D2E/DX2 analytically  !
 ! A37   A(13,14,23)           109.8651         calculate D2E/DX2 analytically  !
 ! A38   A(13,14,24)           110.0975         calculate D2E/DX2 analytically  !
 ! A39   A(22,14,23)           110.5438         calculate D2E/DX2 analytically  !
 ! A40   A(22,14,24)           110.1703         calculate D2E/DX2 analytically  !
 ! A41   A(23,14,24)           107.959          calculate D2E/DX2 analytically  !
 ! D1    D(1,2,3,4)            130.8176         calculate D2E/DX2 analytically  !
 ! D2    D(1,2,3,13)           -48.8039         calculate D2E/DX2 analytically  !
 ! D3    D(15,2,3,4)            17.3678         calculate D2E/DX2 analytically  !
 ! D4    D(15,2,3,13)         -162.2537         calculate D2E/DX2 analytically  !
 ! D5    D(16,2,3,4)          -117.269          calculate D2E/DX2 analytically  !
 ! D6    D(16,2,3,13)           63.1094         calculate D2E/DX2 analytically  !
 ! D7    D(2,3,4,5)           -178.8832         calculate D2E/DX2 analytically  !
 ! D8    D(13,3,4,5)             0.7923         calculate D2E/DX2 analytically  !
 ! D9    D(2,3,13,6)           177.2186         calculate D2E/DX2 analytically  !
 ! D10   D(2,3,13,14)           -4.9072         calculate D2E/DX2 analytically  !
 ! D11   D(4,3,13,6)            -2.4567         calculate D2E/DX2 analytically  !
 ! D12   D(4,3,13,14)          175.4175         calculate D2E/DX2 analytically  !
 ! D13   D(3,4,5,6)              1.2694         calculate D2E/DX2 analytically  !
 ! D14   D(4,5,6,7)            179.0039         calculate D2E/DX2 analytically  !
 ! D15   D(4,5,6,13)            -2.7981         calculate D2E/DX2 analytically  !
 ! D16   D(5,6,7,8)           -130.5454         calculate D2E/DX2 analytically  !
 ! D17   D(5,6,7,12)            47.8904         calculate D2E/DX2 analytically  !
 ! D18   D(13,6,7,8)            51.5898         calculate D2E/DX2 analytically  !
 ! D19   D(13,6,7,12)         -129.9744         calculate D2E/DX2 analytically  !
 ! D20   D(5,6,13,3)             3.2279         calculate D2E/DX2 analytically  !
 ! D21   D(5,6,13,14)         -174.6401         calculate D2E/DX2 analytically  !
 ! D22   D(7,6,13,3)          -178.6044         calculate D2E/DX2 analytically  !
 ! D23   D(7,6,13,14)            3.5277         calculate D2E/DX2 analytically  !
 ! D24   D(6,7,8,9)            179.9579         calculate D2E/DX2 analytically  !
 ! D25   D(6,7,8,17)             1.4603         calculate D2E/DX2 analytically  !
 ! D26   D(12,7,8,9)             1.5148         calculate D2E/DX2 analytically  !
 ! D27   D(12,7,8,17)         -176.9828         calculate D2E/DX2 analytically  !
 ! D28   D(6,7,12,11)          179.9677         calculate D2E/DX2 analytically  !
 ! D29   D(6,7,12,21)           -0.2537         calculate D2E/DX2 analytically  !
 ! D30   D(8,7,12,11)           -1.552          calculate D2E/DX2 analytically  !
 ! D31   D(8,7,12,21)          178.2266         calculate D2E/DX2 analytically  !
 ! D32   D(7,8,9,10)            -0.5072         calculate D2E/DX2 analytically  !
 ! D33   D(7,8,9,18)          -179.701          calculate D2E/DX2 analytically  !
 ! D34   D(17,8,9,10)          178.0224         calculate D2E/DX2 analytically  !
 ! D35   D(17,8,9,18)           -1.1715         calculate D2E/DX2 analytically  !
 ! D36   D(8,9,10,11)           -0.4904         calculate D2E/DX2 analytically  !
 ! D37   D(8,9,10,19)         -179.6105         calculate D2E/DX2 analytically  !
 ! D38   D(18,9,10,11)         178.7054         calculate D2E/DX2 analytically  !
 ! D39   D(18,9,10,19)          -0.4147         calculate D2E/DX2 analytically  !
 ! D40   D(9,10,11,12)           0.4554         calculate D2E/DX2 analytically  !
 ! D41   D(9,10,11,20)        -179.0263         calculate D2E/DX2 analytically  !
 ! D42   D(19,10,11,12)        179.5766         calculate D2E/DX2 analytically  !
 ! D43   D(19,10,11,20)          0.0949         calculate D2E/DX2 analytically  !
 ! D44   D(10,11,12,7)           0.5786         calculate D2E/DX2 analytically  !
 ! D45   D(10,11,12,21)       -179.2016         calculate D2E/DX2 analytically  !
 ! D46   D(20,11,12,7)        -179.9385         calculate D2E/DX2 analytically  !
 ! D47   D(20,11,12,21)          0.2812         calculate D2E/DX2 analytically  !
 ! D48   D(3,13,14,22)          89.4102         calculate D2E/DX2 analytically  !
 ! D49   D(3,13,14,23)        -149.8167         calculate D2E/DX2 analytically  !
 ! D50   D(3,13,14,24)         -31.0461         calculate D2E/DX2 analytically  !
 ! D51   D(6,13,14,22)         -93.1389         calculate D2E/DX2 analytically  !
 ! D52   D(6,13,14,23)          27.6342         calculate D2E/DX2 analytically  !
 ! D53   D(6,13,14,24)         146.4049         calculate D2E/DX2 analytically  !
 --------------------------------------------------------------------------------
 Trust Radius=3.00D-01 FncErr=1.00D-07 GrdErr=1.00D-06 EigMax=2.50D+02 EigMin=1.00D-04
 Number of steps in this run=    129 maximum allowed number of steps=    144.
 GradGradGradGradGradGradGradGradGradGradGradGradGradGradGradGradGradGrad

                          Input orientation:                          
 ---------------------------------------------------------------------
 Center     Atomic      Atomic             Coordinates (Angstroms)
 Number     Number       Type             X           Y           Z
 ---------------------------------------------------------------------
      1          9           0        4.328334   -0.968574   -0.301455
      2         16           0        4.079239    0.240353    0.704384
      3          6           0        2.365377    0.211211    1.075493
      4          7           0        1.839968    0.262102    2.283645
      5          7           0        0.476124    0.190353    2.156625
      6          6           0        0.175595    0.068605    0.877400
      7          6           0       -1.175189   -0.058489    0.335702
      8          6           0       -1.509692   -1.064025   -0.582126
      9          6           0       -2.810580   -1.161760   -1.082800
     10          6           0       -3.789752   -0.263170   -0.663070
     11          6           0       -3.473681    0.727311    0.264486
     12          6           0       -2.174013    0.825076    0.765767
     13          7           0        1.348277    0.124267    0.156683
     14          6           0        1.481598    0.139697   -1.278145
     15          8           0        4.812944   -0.082921    1.907398
     16          8           0        4.302259    1.443787   -0.070346
     17          1           0       -0.772024   -1.796253   -0.899773
     18          1           0       -3.064505   -1.947006   -1.790686
     19          1           0       -4.803601   -0.342993   -1.047741
     20          1           0       -4.239476    1.419632    0.605515
     21          1           0       -1.942142    1.595112    1.500153
     22          1           0        1.614582   -0.889606   -1.619758
     23          1           0        0.589843    0.581097   -1.729096
     24          1           0        2.340514    0.746197   -1.568255
 ---------------------------------------------------------------------
                    Distance matrix (angstroms):
                    1          2          3          4          5
     1  F    0.000000
     2  S    1.592251   0.000000
     3  C    2.672279   1.753823   0.000000
     4  N    3.793319   2.740232   1.318437   0.000000
     5  N    4.714317   3.885092   2.176822   1.371624   0.000000
     6  C    4.439671   3.911249   2.203343   2.187488   1.319680
     7  C    5.614533   5.275817   3.627070   3.603947   2.470732
     8  C    5.845548   5.881553   4.403418   4.603421   3.608003
     9  C    7.184143   7.254623   5.773544   5.915060   4.808794
    10  C    8.156695   8.002780   6.413521   6.375954   5.133621
    11  C    8.004232   7.581374   5.917659   5.703358   4.412422
    12  C    6.829103   6.280830   4.591168   4.328157   3.059507
    13  N    3.207012   2.787760   1.373413   2.187401   2.182838
    14  C    3.207194   3.269296   2.515113   3.581866   3.579272
    15  O    2.428633   1.445708   2.601762   3.016486   4.352562
    16  O    2.423545   1.448516   2.565873   3.605625   4.601065
    17  H    5.201604   5.500531   4.216025   4.603637   3.853056
    18  H    7.604552   7.876738   6.508188   6.747903   5.717134
    19  H    9.183710   9.072766   7.497300   7.456627   6.199025
    20  H    8.940553   8.402470   6.730917   6.412148   5.114094
    21  H    7.009789   6.222994   4.544253   4.085968   2.872684
    22  H    3.018047   3.571132   3.006638   4.076001   4.089433
    23  H    4.291381   4.267765   3.339919   4.215052   3.906973
    24  H    2.914901   2.905845   2.697449   3.914336   4.202337
                    6          7          8          9         10
     6  C    0.000000
     7  C    1.460892   0.000000
     8  C    2.500652   1.401929   0.000000
     9  C    3.778019   2.429786   1.397332   0.000000
    10  C    4.266978   2.806311   2.417973   1.393705   0.000000
    11  C    3.758560   2.430148   2.789782   2.413186   1.393310
    12  C    2.470904   1.401175   2.413885   2.787460   2.415878
    13  N    1.377575   2.536400   3.182116   4.526177   5.217417
    14  C    2.521324   3.114851   3.298667   4.489403   5.322382
    15  O    4.752774   6.191006   6.865568   8.259740   8.980322
    16  O    4.451820   5.694220   6.350576   7.642409   8.291300
    17  H    2.744817   2.169968   1.086836   2.142847   3.393089
    18  H    4.656138   3.414314   2.158175   1.087287   2.152395
    19  H    5.354248   3.893614   3.403898   2.154934   1.087306
    20  H    4.625154   3.412843   3.876953   3.399373   2.154852
    21  H    2.683814   2.162998   3.404983   3.876361   3.398001
    22  H    3.037211   3.506765   3.296694   4.465921   5.523993
    23  H    2.688507   2.790663   2.903449   3.875323   4.585853
    24  H    3.335751   4.078325   4.367315   5.514502   6.278403
                   11         12         13         14         15
    11  C    0.000000
    12  C    1.396416   0.000000
    13  N    4.860716   3.642615   0.000000
    14  C    5.223005   4.243915   1.441092   0.000000
    15  O    8.486683   7.137601   3.887396   4.614663   0.000000
    16  O    7.816053   6.559267   3.243252   3.334000   2.550119
    17  H    3.875928   3.407486   3.049618   2.994975   6.481326
    18  H    3.397518   3.874644   5.249292   5.028328   8.899711
    19  H    2.153178   3.401166   6.286062   6.307916  10.063718
    20  H    1.087223   2.155300   5.753469   6.157686   9.268165
    21  H    2.150712   1.089056   3.846447   4.643185   6.972290
    22  H    5.661732   4.794196   2.062669   1.092634   4.829192
    23  H    4.528573   3.731323   2.083286   1.092436   5.612450
    24  H    6.096241   5.082798   2.084885   1.090753   4.345171
                   16         17         18         19         20
    16  O    0.000000
    17  H    6.077347   0.000000
    18  H    8.290130   2.464128   0.000000
    19  H    9.330840   4.288062   2.479774   0.000000
    20  H    8.568466   4.962966   4.296114   2.481600   0.000000
    21  H    6.440645   4.316269   4.963459   4.293712   2.471622
    22  H    3.881882   2.652598   4.800122   6.466766   6.674910
    23  H    4.156647   2.862560   4.444025   5.514293   5.429169
    24  H    2.564918   4.074164   6.042934   7.245388   6.962404
                   21         22         23         24
    21  H    0.000000
    22  H    5.343964   0.000000
    23  H    4.226964   1.795832   0.000000
    24  H    5.336377   1.790386   1.765779   0.000000
 Stoichiometry    C9H8FN3O2S
 Framework group  C1[X(C9H8FN3O2S)]
 Deg. of freedom    66
 Full point group                 C1      NOp   1
 Largest Abelian subgroup         C1      NOp   1
 Largest concise Abelian subgroup C1      NOp   1
                         Standard orientation:                         
 ---------------------------------------------------------------------
 Center     Atomic      Atomic             Coordinates (Angstroms)
 Number     Number       Type             X           Y           Z
 ---------------------------------------------------------------------
      1          9           0        3.140935    1.439453   -0.689416
      2         16           0        3.076165    0.049786    0.085113
      3          6           0        1.425470   -0.518067   -0.084130
      4          7           0        1.064346   -1.727130   -0.466269
      5          7           0       -0.306235   -1.770672   -0.497329
      6          6           0       -0.775526   -0.583794   -0.161706
      7          6           0       -2.189463   -0.221932   -0.098117
      8          6           0       -2.682753    0.935159   -0.717155
      9          6           0       -4.040685    1.255540   -0.640255
     10          6           0       -4.918048    0.417925    0.046076
     11          6           0       -4.442387   -0.745422    0.647477
     12          6           0       -3.085584   -1.066543    0.570382
     13          7           0        0.294711    0.224743    0.152258
     14          6           0        0.240745    1.567015    0.673931
     15          8           0        3.945828   -0.851329   -0.637209
     16          8           0        3.247168    0.376372    1.485933
     17          1           0       -2.024308    1.586886   -1.285410
     18          1           0       -4.417525    2.151921   -1.126759
     19          1           0       -5.975789    0.663771    0.100638
     20          1           0       -5.127340   -1.408673    1.169961
     21          1           0       -2.727785   -1.985161    1.033162
     22          1           0        0.284513    2.262419   -0.167702
     23          1           0       -0.682637    1.708302    1.240342
     24          1           0        1.079481    1.740655    1.349292
 ---------------------------------------------------------------------
 Rotational constants (GHZ):           1.4597418           0.2377605           0.2210289
 Standard basis: 6-31G(d) (6D, 7F)
 There are   260 symmetry adapted cartesian basis functions of A   symmetry.
 There are   260 symmetry adapted basis functions of A   symmetry.
   260 basis functions,   504 primitive gaussians,   260 cartesian basis functions
    62 alpha electrons       62 beta electrons
       nuclear repulsion energy      1224.1674973186 Hartrees.
 NAtoms=   24 NActive=   24 NUniq=   24 SFac= 1.00D+00 NAtFMM=   60 NAOKFM=F Big=F
 Integral buffers will be    131072 words long.
 Raffenetti 2 integral format.
 Two-electron integral symmetry is turned on.
 R6APFD:  NTU= -4 IXU= 1 FactS= 1.050
 Nuclear repulsion after empirical dispersion term =     1224.1447183597 Hartrees.
 One-electron integrals computed using PRISM.
 NBasis=   260 RedAO= T EigKep=  4.63D-04  NBF=   260
 NBsUse=   260 1.00D-06 EigRej= -1.00D+00 NBFU=   260
 ExpMin= 1.17D-01 ExpMax= 2.19D+04 ExpMxC= 3.30D+03 IAcc=3 IRadAn=         5 AccDes= 0.00D+00
 Harris functional with IExCor= 3731 and IRadAn=       5 diagonalized for initial guess.
 HarFok:  IExCor= 3731 AccDes= 0.00D+00 IRadAn=         5 IDoV= 1 UseB2=F ITyADJ=14
 ICtDFT=  3500011 ScaDFX=  1.000000  1.000000  1.000000  1.000000
 FoFCou: FMM=F IPFlag=           0 FMFlag=      100000 FMFlg1=           0
         NFxFlg=           0 DoJE=T BraDBF=F KetDBF=T FulRan=T
         wScrn=  0.000000 ICntrl=       500 IOpCl=  0 I1Cent=   200000004 NGrid=           0
         NMat0=    1 NMatS0=      1 NMatT0=    0 NMatD0=    1 NMtDS0=    0 NMtDT0=    0
 Petite list used in FoFCou.
 Keep R1 ints in memory in canonical form, NReq=584530731.
 Requested convergence on RMS density matrix=1.00D-08 within  32 cycles.
 Requested convergence on MAX density matrix=1.00D-06.
 Requested convergence on             energy=1.00D-06.
 No special actions if energy rises.
 Integral accuracy reduced to 1.0D-05 until final iterations.
 Initial convergence to 1.0D-05 achieved.  Increase integral accuracy.
 SCF Done:  E(RAPFD) =  -1159.71777039     A.U. after   15 cycles
            NFock= 15  Conv=0.78D-08     -V/T= 2.0069
 QCSCF skips out because SCF is already converged.
 DoSCS=F DFT=T ScalE2(SS,OS)=  1.000000  1.000000
 Range of M.O.s used for correlation:     1   260
 NBasis=   260 NAE=    62 NBE=    62 NFC=     0 NFV=     0
 NROrb=    260 NOA=    62 NOB=    62 NVA=   198 NVB=   198
 R6APFD:  NTU= -4 IXU= 1 FactS= 1.050
 Symmetrizing basis deriv contribution to polar:
 IMax=3 JMax=2 DiffMx= 0.00D+00
 G2DrvN: will do    25 centers at a time, making    1 passes.
 Calling FoFCou, ICntrl=  3107 FMM=F I1Cent=   0 AccDes= 0.00D+00.
 End of G2Drv F.D. properties file   721 does not exist.
 End of G2Drv F.D. properties file   722 does not exist.
 End of G2Drv F.D. properties file   788 does not exist.
          IDoAtm=111111111111111111111111
          Differentiating once with respect to nuclear coordinates.
 Keep R1 ints in memory in canonical form, NReq=584540734.
          There are    75 degrees of freedom in the 1st order CPHF.  IDoFFX=6 NUNeed=     0.
     69 vectors produced by pass  0 Test12= 1.64D-14 1.33D-09 XBig12= 2.38D-01 1.47D-01.
 AX will form    69 AO Fock derivatives at one time.
     69 vectors produced by pass  1 Test12= 1.64D-14 1.33D-09 XBig12= 3.06D-02 4.41D-02.
     69 vectors produced by pass  2 Test12= 1.64D-14 1.33D-09 XBig12= 7.24D-04 3.68D-03.
     69 vectors produced by pass  3 Test12= 1.64D-14 1.33D-09 XBig12= 5.96D-06 3.38D-04.
     69 vectors produced by pass  4 Test12= 1.64D-14 1.33D-09 XBig12= 2.48D-08 2.01D-05.
     66 vectors produced by pass  5 Test12= 1.64D-14 1.33D-09 XBig12= 5.97D-11 1.03D-06.
     21 vectors produced by pass  6 Test12= 1.64D-14 1.33D-09 XBig12= 8.39D-14 2.79D-08.
 InvSVY:  IOpt=1 It=  1 EMax= 4.44D-16
 Solved reduced A of dimension   432 with    75 vectors.
 End of Minotr F.D. properties file   721 does not exist.
 End of Minotr F.D. properties file   722 does not exist.
 End of Minotr F.D. properties file   788 does not exist.

 **********************************************************************

            Population analysis using the SCF density.

 **********************************************************************

 Orbital symmetries:
       Occupied  (A) (A) (A) (A) (A) (A) (A) (A) (A) (A) (A) (A)
                 (A) (A) (A) (A) (A) (A) (A) (A) (A) (A) (A) (A)
                 (A) (A) (A) (A) (A) (A) (A) (A) (A) (A) (A) (A)
                 (A) (A) (A) (A) (A) (A) (A) (A) (A) (A) (A) (A)
                 (A) (A) (A) (A) (A) (A) (A) (A) (A) (A) (A) (A)
                 (A) (A)
       Virtual   (A) (A) (A) (A) (A) (A) (A) (A) (A) (A) (A) (A)
                 (A) (A) (A) (A) (A) (A) (A) (A) (A) (A) (A) (A)
                 (A) (A) (A) (A) (A) (A) (A) (A) (A) (A) (A) (A)
                 (A) (A) (A) (A) (A) (A) (A) (A) (A) (A) (A) (A)
                 (A) (A) (A) (A) (A) (A) (A) (A) (A) (A) (A) (A)
                 (A) (A) (A) (A) (A) (A) (A) (A) (A) (A) (A) (A)
                 (A) (A) (A) (A) (A) (A) (A) (A) (A) (A) (A) (A)
                 (A) (A) (A) (A) (A) (A) (A) (A) (A) (A) (A) (A)
                 (A) (A) (A) (A) (A) (A) (A) (A) (A) (A) (A) (A)
                 (A) (A) (A) (A) (A) (A) (A) (A) (A) (A) (A) (A)
                 (A) (A) (A) (A) (A) (A) (A) (A) (A) (A) (A) (A)
                 (A) (A) (A) (A) (A) (A) (A) (A) (A) (A) (A) (A)
                 (A) (A) (A) (A) (A) (A) (A) (A) (A) (A) (A) (A)
                 (A) (A) (A) (A) (A) (A) (A) (A) (A) (A) (A) (A)
                 (A) (A) (A) (A) (A) (A) (A) (A) (A) (A) (A) (A)
                 (A) (A) (A) (A) (A) (A) (A) (A) (A) (A) (A) (A)
                 (A) (A) (A) (A) (A) (A)
 The electronic state is 1-A.
 Alpha  occ. eigenvalues --  -89.26029 -24.81603 -19.23036 -19.23030 -14.48149
 Alpha  occ. eigenvalues --  -14.41612 -14.40445 -10.32523 -10.30980 -10.28267
 Alpha  occ. eigenvalues --  -10.26156 -10.24974 -10.24465 -10.24304 -10.24240
 Alpha  occ. eigenvalues --  -10.24060  -8.23759  -6.18708  -6.18324  -6.18314
 Alpha  occ. eigenvalues --   -1.30849  -1.15268  -1.11586  -1.06938  -0.97801
 Alpha  occ. eigenvalues --   -0.90971  -0.87219  -0.79995  -0.78806  -0.77752
 Alpha  occ. eigenvalues --   -0.74780  -0.68278  -0.66074  -0.64223  -0.62253
 Alpha  occ. eigenvalues --   -0.59593  -0.56605  -0.55207  -0.53626  -0.53326
 Alpha  occ. eigenvalues --   -0.52787  -0.50314  -0.48741  -0.47762  -0.47109
 Alpha  occ. eigenvalues --   -0.46554  -0.45525  -0.45298  -0.45223  -0.40841
 Alpha  occ. eigenvalues --   -0.40319  -0.38861  -0.37903  -0.37569  -0.36710
 Alpha  occ. eigenvalues --   -0.34912  -0.34461  -0.32415  -0.31463  -0.28757
 Alpha  occ. eigenvalues --   -0.28435  -0.27431
 Alpha virt. eigenvalues --   -0.06055  -0.03362  -0.02686   0.01560   0.02623
 Alpha virt. eigenvalues --    0.05150   0.07224   0.08416   0.10020   0.11700
 Alpha virt. eigenvalues --    0.12938   0.13080   0.14124   0.14851   0.15203
 Alpha virt. eigenvalues --    0.16244   0.17935   0.18580   0.21232   0.23008
 Alpha virt. eigenvalues --    0.25297   0.27474   0.28012   0.28728   0.29949
 Alpha virt. eigenvalues --    0.31308   0.32811   0.35607   0.36749   0.38435
 Alpha virt. eigenvalues --    0.40341   0.43611   0.45561   0.46511   0.50694
 Alpha virt. eigenvalues --    0.51547   0.52815   0.53764   0.54614   0.55827
 Alpha virt. eigenvalues --    0.56334   0.57834   0.58120   0.58508   0.59718
 Alpha virt. eigenvalues --    0.60565   0.60770   0.63064   0.63508   0.63858
 Alpha virt. eigenvalues --    0.64668   0.66427   0.71251   0.72384   0.73055
 Alpha virt. eigenvalues --    0.73726   0.75508   0.76294   0.77102   0.79639
 Alpha virt. eigenvalues --    0.80149   0.80954   0.82379   0.82584   0.83434
 Alpha virt. eigenvalues --    0.83821   0.84523   0.85107   0.86562   0.87743
 Alpha virt. eigenvalues --    0.88470   0.90052   0.90630   0.92421   0.93191
 Alpha virt. eigenvalues --    0.94344   0.95582   0.98103   0.98799   0.99805
 Alpha virt. eigenvalues --    1.02143   1.03274   1.06242   1.08004   1.09209
 Alpha virt. eigenvalues --    1.10070   1.11182   1.12768   1.14601   1.15985
 Alpha virt. eigenvalues --    1.16989   1.19638   1.22197   1.23429   1.24913
 Alpha virt. eigenvalues --    1.27257   1.28866   1.29105   1.31609   1.36129
 Alpha virt. eigenvalues --    1.36958   1.39777   1.41546   1.42572   1.43209
 Alpha virt. eigenvalues --    1.44687   1.45653   1.46349   1.46924   1.48616
 Alpha virt. eigenvalues --    1.50014   1.51442   1.54588   1.60025   1.66345
 Alpha virt. eigenvalues --    1.69458   1.75109   1.75906   1.76953   1.77826
 Alpha virt. eigenvalues --    1.78271   1.79022   1.80771   1.81709   1.82295
 Alpha virt. eigenvalues --    1.83029   1.83253   1.84950   1.88156   1.89134
 Alpha virt. eigenvalues --    1.90125   1.90810   1.94717   1.95349   1.96524
 Alpha virt. eigenvalues --    1.99067   2.01143   2.02976   2.04026   2.06273
 Alpha virt. eigenvalues --    2.08915   2.10541   2.11246   2.12555   2.15302
 Alpha virt. eigenvalues --    2.17192   2.18698   2.20282   2.21357   2.23743
 Alpha virt. eigenvalues --    2.24853   2.26586   2.27298   2.28382   2.29278
 Alpha virt. eigenvalues --    2.30565   2.33757   2.37361   2.39414   2.44088
 Alpha virt. eigenvalues --    2.50651   2.53111   2.56440   2.58468   2.61249
 Alpha virt. eigenvalues --    2.62668   2.64884   2.66585   2.70580   2.70780
 Alpha virt. eigenvalues --    2.73237   2.75315   2.78170   2.80128   2.81462
 Alpha virt. eigenvalues --    2.83975   2.86511   2.96839   3.05171   3.14382
 Alpha virt. eigenvalues --    3.19282   3.40807   3.72877   3.75144   3.86491
 Alpha virt. eigenvalues --    3.94511   4.07060   4.09093   4.10960   4.12129
 Alpha virt. eigenvalues --    4.13872   4.26533   4.31850   4.33982   4.36197
 Alpha virt. eigenvalues --    4.49434   4.72148   4.74473
          Condensed to atoms (all electrons):
               1          2          3          4          5          6
     1  F    9.179112   0.201305  -0.026729   0.000345  -0.000010  -0.000115
     2  S    0.201305  13.438182   0.183922  -0.010779   0.001565  -0.001019
     3  C   -0.026729   0.183922   5.407430   0.314686  -0.095746  -0.091199
     4  N    0.000345  -0.010779   0.314686   6.826746   0.285197  -0.078946
     5  N   -0.000010   0.001565  -0.095746   0.285197   6.893280   0.379415
     6  C   -0.000115  -0.001019  -0.091199  -0.078946   0.379415   4.805996
     7  C   -0.000000  -0.000277   0.004134   0.007146  -0.067217   0.334605
     8  C    0.000000   0.000009  -0.000049  -0.000116   0.001594  -0.043100
     9  C    0.000000  -0.000000   0.000003   0.000001  -0.000082   0.005513
    10  C   -0.000000  -0.000000  -0.000000   0.000000   0.000008   0.000547
    11  C   -0.000000   0.000000   0.000004   0.000001   0.000306   0.006164
    12  C    0.000000   0.000000   0.000078   0.000008  -0.000870  -0.044434
    13  N   -0.002532  -0.009996   0.265739  -0.077254  -0.072494   0.341451
    14  C    0.003309   0.003666  -0.038273   0.006574   0.006732  -0.034800
    15  O   -0.034255   0.472203  -0.043489  -0.003249   0.000093  -0.000115
    16  O   -0.035649   0.438675  -0.055960  -0.000184  -0.000058  -0.000013
    17  H   -0.000000  -0.000003  -0.000143  -0.000010   0.000028  -0.005571
    18  H    0.000000  -0.000000  -0.000000  -0.000000   0.000000  -0.000169
    19  H   -0.000000  -0.000000   0.000000   0.000000   0.000000   0.000006
    20  H   -0.000000  -0.000000  -0.000000  -0.000000  -0.000004  -0.000181
    21  H   -0.000000  -0.000001   0.000038  -0.000129   0.004706  -0.007144
    22  H    0.000561  -0.000340  -0.000541  -0.000070  -0.000145  -0.000767
    23  H    0.000056   0.000206   0.003326  -0.000153   0.000154  -0.004253
    24  H   -0.001309   0.005349  -0.004644   0.000143  -0.000165   0.002208
               7          8          9         10         11         12
     1  F   -0.000000   0.000000   0.000000  -0.000000  -0.000000   0.000000
     2  S   -0.000277   0.000009  -0.000000  -0.000000   0.000000   0.000000
     3  C    0.004134  -0.000049   0.000003  -0.000000   0.000004   0.000078
     4  N    0.007146  -0.000116   0.000001   0.000000   0.000001   0.000008
     5  N   -0.067217   0.001594  -0.000082   0.000008   0.000306  -0.000870
     6  C    0.334605  -0.043100   0.005513   0.000547   0.006164  -0.044434
     7  C    4.784978   0.531815  -0.024251  -0.029683  -0.026128   0.545843
     8  C    0.531815   4.970422   0.528400  -0.043429  -0.042987  -0.050301
     9  C   -0.024251   0.528400   4.888646   0.553251  -0.033011  -0.040950
    10  C   -0.029683  -0.043429   0.553251   4.867098   0.548691  -0.042608
    11  C   -0.026128  -0.042987  -0.033011   0.548691   4.904505   0.521274
    12  C    0.545843  -0.050301  -0.040950  -0.042608   0.521274   4.933465
    13  N   -0.053084  -0.006381   0.000153   0.000008  -0.000084   0.002891
    14  C    0.000791  -0.001886  -0.000242   0.000012  -0.000008  -0.000037
    15  O   -0.000000  -0.000000   0.000000   0.000000   0.000000  -0.000000
    16  O   -0.000001   0.000000  -0.000000   0.000000   0.000000  -0.000000
    17  H   -0.044293   0.365181  -0.036510   0.004162   0.000304   0.004477
    18  H    0.003066  -0.035663   0.366603  -0.037704   0.003939   0.000715
    19  H    0.000513   0.004417  -0.038873   0.367295  -0.038821   0.004199
    20  H    0.003191   0.000692   0.003971  -0.038667   0.366668  -0.034275
    21  H   -0.038578   0.004609   0.000264   0.004071  -0.037590   0.366698
    22  H    0.000238  -0.000619  -0.000049   0.000001   0.000000  -0.000023
    23  H    0.005263   0.002891   0.000012  -0.000041  -0.000029   0.000292
    24  H    0.000051   0.000218   0.000002  -0.000000  -0.000000   0.000010
              13         14         15         16         17         18
     1  F   -0.002532   0.003309  -0.034255  -0.035649  -0.000000   0.000000
     2  S   -0.009996   0.003666   0.472203   0.438675  -0.000003  -0.000000
     3  C    0.265739  -0.038273  -0.043489  -0.055960  -0.000143  -0.000000
     4  N   -0.077254   0.006574  -0.003249  -0.000184  -0.000010  -0.000000
     5  N   -0.072494   0.006732   0.000093  -0.000058   0.000028   0.000000
     6  C    0.341451  -0.034800  -0.000115  -0.000013  -0.005571  -0.000169
     7  C   -0.053084   0.000791  -0.000000  -0.000001  -0.044293   0.003066
     8  C   -0.006381  -0.001886  -0.000000   0.000000   0.365181  -0.035663
     9  C    0.000153  -0.000242   0.000000  -0.000000  -0.036510   0.366603
    10  C    0.000008   0.000012   0.000000   0.000000   0.004162  -0.037704
    11  C   -0.000084  -0.000008   0.000000   0.000000   0.000304   0.003939
    12  C    0.002891  -0.000037  -0.000000  -0.000000   0.004477   0.000715
    13  N    6.980412   0.220174   0.001637  -0.000796   0.001018  -0.000001
    14  C    0.220174   5.142257  -0.000054  -0.005687   0.000861  -0.000002
    15  O    0.001637  -0.000054   8.078388  -0.037476  -0.000000  -0.000000
    16  O   -0.000796  -0.005687  -0.037476   8.170157  -0.000000   0.000000
    17  H    0.001018   0.000861  -0.000000  -0.000000   0.534915  -0.004374
    18  H   -0.000001  -0.000002  -0.000000   0.000000  -0.004374   0.525601
    19  H    0.000000  -0.000000   0.000000   0.000000  -0.000155  -0.004417
    20  H    0.000001   0.000000  -0.000000  -0.000000   0.000015  -0.000157
    21  H    0.000219  -0.000016  -0.000000   0.000000  -0.000131   0.000014
    22  H   -0.044093   0.379710   0.000003   0.000021   0.001077  -0.000000
    23  H   -0.031383   0.372688   0.000000   0.000028  -0.000522  -0.000002
    24  H   -0.029793   0.369348   0.000028   0.010454   0.000058  -0.000000
              19         20         21         22         23         24
     1  F   -0.000000  -0.000000  -0.000000   0.000561   0.000056  -0.001309
     2  S   -0.000000  -0.000000  -0.000001  -0.000340   0.000206   0.005349
     3  C    0.000000  -0.000000   0.000038  -0.000541   0.003326  -0.004644
     4  N    0.000000  -0.000000  -0.000129  -0.000070  -0.000153   0.000143
     5  N    0.000000  -0.000004   0.004706  -0.000145   0.000154  -0.000165
     6  C    0.000006  -0.000181  -0.007144  -0.000767  -0.004253   0.002208
     7  C    0.000513   0.003191  -0.038578   0.000238   0.005263   0.000051
     8  C    0.004417   0.000692   0.004609  -0.000619   0.002891   0.000218
     9  C   -0.038873   0.003971   0.000264  -0.000049   0.000012   0.000002
    10  C    0.367295  -0.038667   0.004071   0.000001  -0.000041  -0.000000
    11  C   -0.038821   0.366668  -0.037590   0.000000  -0.000029  -0.000000
    12  C    0.004199  -0.034275   0.366698  -0.000023   0.000292   0.000010
    13  N    0.000000   0.000001   0.000219  -0.044093  -0.031383  -0.029793
    14  C   -0.000000   0.000000  -0.000016   0.379710   0.372688   0.369348
    15  O    0.000000  -0.000000  -0.000000   0.000003   0.000000   0.000028
    16  O    0.000000  -0.000000   0.000000   0.000021   0.000028   0.010454
    17  H   -0.000155   0.000015  -0.000131   0.001077  -0.000522   0.000058
    18  H   -0.004417  -0.000157   0.000014  -0.000000  -0.000002  -0.000000
    19  H    0.528088  -0.004413  -0.000142  -0.000000   0.000000  -0.000000
    20  H   -0.004413   0.521442  -0.004221  -0.000000  -0.000000   0.000000
    21  H   -0.000142  -0.004221   0.503419  -0.000000  -0.000003   0.000001
    22  H   -0.000000  -0.000000  -0.000000   0.502511  -0.026468  -0.026224
    23  H    0.000000  -0.000000  -0.000003  -0.026468   0.472325  -0.019658
    24  H   -0.000000   0.000000   0.000001  -0.026224  -0.019658   0.451572
 Mulliken charges:
               1
     1  F   -0.284088
     2  S    1.277334
     3  C    0.177415
     4  N   -0.269955
     5  N   -0.336289
     6  C    0.435918
     7  C    0.061878
     8  C   -0.185719
     9  C   -0.172851
    10  C   -0.153011
    11  C   -0.173197
    12  C   -0.166452
    13  N   -0.485808
    14  C   -0.425118
    15  O   -0.433712
    16  O   -0.483512
    17  H    0.179618
    18  H    0.182552
    19  H    0.182303
    20  H    0.185937
    21  H    0.203917
    22  H    0.215217
    23  H    0.225272
    24  H    0.242351
 Sum of Mulliken charges =  -0.00000
 Mulliken charges with hydrogens summed into heavy atoms:
               1
     1  F   -0.284088
     2  S    1.277334
     3  C    0.177415
     4  N   -0.269955
     5  N   -0.336289
     6  C    0.435918
     7  C    0.061878
     8  C   -0.006101
     9  C    0.009702
    10  C    0.029292
    11  C    0.012740
    12  C    0.037465
    13  N   -0.485808
    14  C    0.257722
    15  O   -0.433712
    16  O   -0.483512
 APT charges:
               1
     1  F   -0.073169
     2  S    0.084065
     3  C   -0.041174
     4  N   -0.130060
     5  N   -0.191102
     6  C    0.083151
     7  C   -0.646611
     8  C   -0.595436
     9  C   -0.518725
    10  C   -0.438351
    11  C   -0.473602
    12  C   -0.542719
    13  N   -0.366818
    14  C   -1.275880
    15  O    0.342673
    16  O   -0.136549
    17  H    0.278910
    18  H    0.787066
    19  H    1.099188
    20  H    0.915593
    21  H    0.413977
    22  H    0.443905
    23  H    0.455517
    24  H    0.526149
 Sum of APT charges =  -0.00000
 APT charges with hydrogens summed into heavy atoms:
               1
     1  F   -0.073169
     2  S    0.084065
     3  C   -0.041174
     4  N   -0.130060
     5  N   -0.191102
     6  C    0.083151
     7  C   -0.646611
     8  C   -0.316525
     9  C    0.268342
    10  C    0.660837
    11  C    0.441991
    12  C   -0.128742
    13  N   -0.366818
    14  C    0.149691
    15  O    0.342673
    16  O   -0.136549
 Electronic spatial extent (au):  <R**2>=           4676.6447
 Charge=             -0.0000 electrons
 Dipole moment (field-independent basis, Debye):
    X=             -6.0864    Y=              4.9974    Z=              0.9802  Tot=              7.9359
 Quadrupole moment (field-independent basis, Debye-Ang):
   XX=            -96.3790   YY=            -99.0746   ZZ=            -99.2469
   XY=              2.8896   XZ=             -2.8428   YZ=             -6.5621
 Traceless Quadrupole moment (field-independent basis, Debye-Ang):
   XX=              1.8545   YY=             -0.8411   ZZ=             -1.0134
   XY=              2.8896   XZ=             -2.8428   YZ=             -6.5621
 Octapole moment (field-independent basis, Debye-Ang**2):
  XXX=            -88.9849  YYY=             35.3793  ZZZ=             -4.7577  XYY=              2.0481
  XXY=             19.8059  XXZ=              5.0160  XZZ=             11.6596  YZZ=              6.4022
  YYZ=              7.8462  XYZ=              8.2681
 Hexadecapole moment (field-independent basis, Debye-Ang**3):
 XXXX=          -4619.4886 YYYY=           -735.6585 ZZZZ=           -316.4507 XXXY=             47.9681
 XXXZ=            -65.3617 YYYX=             34.6720 YYYZ=            -31.5157 ZZZX=            -24.8863
 ZZZY=             -8.2265 XXYY=           -915.6380 XXZZ=           -924.7818 YYZZ=           -162.7057
 XXYZ=            -78.9001 YYXZ=              4.5359 ZZXY=              9.0855
 N-N= 1.224144718360D+03 E-N=-5.170531250781D+03  KE= 1.151754994990D+03
  Exact polarizability:   0.000   0.000   0.000   0.000   0.000   0.000
 Approx polarizability: 269.170  -9.939 210.254 -11.678 -15.356 138.015
 R6APFD:  NTU= -4 IXU= 1 FactS= 1.050
 Calling FoFJK, ICntrl=    100147 FMM=F ISym2X=0 I1Cent= 0 IOpClX= 0 NMat=1 NMatS=1 NMatT=0.
 ***** Axes restored to original set *****
 -------------------------------------------------------------------
 Center     Atomic                   Forces (Hartrees/Bohr)
 Number     Number              X              Y              Z
 -------------------------------------------------------------------
      1        9          -0.010732065   -0.007201481   -0.004099367
      2       16           0.015416855    0.025216072    0.024645965
      3        6          -0.040658744   -0.013099202    0.000876676
      4        7          -0.003407572   -0.003330354    0.003315365
      5        7           0.015645830    0.000415403    0.007048073
      6        6           0.026260516    0.007070631    0.002837960
      7        6          -0.004968522   -0.000077943   -0.004050755
      8        6          -0.003036053   -0.000730023   -0.004025191
      9        6           0.003200550    0.001021084    0.002339713
     10        6          -0.000504218   -0.000288832   -0.000087061
     11        6           0.004722866   -0.001450059    0.001723595
     12        6          -0.004052278    0.003650115    0.002083749
     13        7          -0.002746682   -0.000624957   -0.008365605
     14        6           0.000844234   -0.004075860   -0.006796867
     15        8          -0.005801180    0.001959018   -0.011070135
     16        8           0.002472676   -0.005700209   -0.002397419
     17        1           0.002182963    0.001162810    0.000733340
     18        1           0.001089057   -0.000096772    0.000289592
     19        1           0.000194545   -0.000004074   -0.000401631
     20        1           0.000795069    0.000142460    0.000122459
     21        1           0.002313897   -0.001923605   -0.001433505
     22        1           0.000329956    0.001327663   -0.006257643
     23        1          -0.000788050   -0.002707001    0.001727879
     24        1           0.001226350   -0.000654883    0.001240812
 -------------------------------------------------------------------
 Cartesian Forces:  Max     0.040658744 RMS     0.008443514
 FormGI is forming the generalized inverse of G from B-inverse, IUseBI=4.

 GradGradGradGradGradGradGradGradGradGradGradGradGradGradGradGradGradGrad
 Berny optimization.
 Internal  Forces:  Max     0.032021997 RMS     0.006068627
 Search for a local minimum.
 Step number   1 out of a maximum of  129
 All quantities printed in internal units (Hartrees-Bohrs-Radians)
 Mixed Optimization -- RFO/linear search
 Second derivative matrix not updated -- analytic derivatives used.
 ITU=  0
     Eigenvalues ---    0.00135   0.00236   0.00275   0.00612   0.01082
     Eigenvalues ---    0.01562   0.01726   0.01771   0.01916   0.02184
     Eigenvalues ---    0.02372   0.02570   0.02679   0.02755   0.02815
     Eigenvalues ---    0.04381   0.05652   0.06251   0.06412   0.11300
     Eigenvalues ---    0.11718   0.11995   0.12517   0.12686   0.12944
     Eigenvalues ---    0.13917   0.14230   0.16055   0.16166   0.16523
     Eigenvalues ---    0.17890   0.18295   0.18959   0.19088   0.19157
     Eigenvalues ---    0.19334   0.19393   0.21128   0.21952   0.24597
     Eigenvalues ---    0.29036   0.29822   0.32062   0.32586   0.33635
     Eigenvalues ---    0.34904   0.35451   0.36023   0.36230   0.36477
     Eigenvalues ---    0.36484   0.36640   0.36724   0.39836   0.40810
     Eigenvalues ---    0.42182   0.42465   0.43441   0.45442   0.47819
     Eigenvalues ---    0.48187   0.50473   0.51943   0.57590   0.67582
     Eigenvalues ---    0.68385
 RFO step:  Lambda=-1.62040913D-02 EMin= 1.35480648D-03
 Linear search not attempted -- first point.
 Iteration  1 RMS(Cart)=  0.08056435 RMS(Int)=  0.00343814
 Iteration  2 RMS(Cart)=  0.00379989 RMS(Int)=  0.00054274
 Iteration  3 RMS(Cart)=  0.00001443 RMS(Int)=  0.00054267
 Iteration  4 RMS(Cart)=  0.00000001 RMS(Int)=  0.00054267
 Variable       Old X    -DE/DX   Delta X   Delta X   Delta X     New X
                                 (Linear)    (Quad)   (Total)
    R1        3.00892   0.00638   0.00000   0.02930   0.02930   3.03822
    R2        3.31424   0.00007   0.00000   0.00392   0.00392   3.31817
    R3        2.73199  -0.01259   0.00000  -0.02113  -0.02113   2.71086
    R4        2.73730  -0.00307   0.00000  -0.00768  -0.00768   2.72962
    R5        2.49148  -0.00474   0.00000  -0.01832  -0.01823   2.47326
    R6        2.59537  -0.00949   0.00000  -0.01829  -0.01817   2.57721
    R7        2.59199  -0.02048   0.00000  -0.03904  -0.03910   2.55289
    R8        2.49383   0.00652   0.00000   0.00646   0.00633   2.50016
    R9        2.76069  -0.00091   0.00000   0.00036   0.00036   2.76105
   R10        2.60324  -0.01584   0.00000  -0.02487  -0.02489   2.57834
   R11        2.64926  -0.00239   0.00000  -0.00383  -0.00383   2.64543
   R12        2.64784  -0.00250   0.00000  -0.00299  -0.00299   2.64485
   R13        2.64057  -0.00530   0.00000  -0.01025  -0.01025   2.63032
   R14        2.05382   0.00048   0.00000   0.00080   0.00080   2.05462
   R15        2.63372   0.00073   0.00000   0.00106   0.00106   2.63478
   R16        2.05467  -0.00037   0.00000  -0.00067  -0.00067   2.05401
   R17        2.63298   0.00164   0.00000   0.00336   0.00335   2.63633
   R18        2.05471  -0.00004   0.00000  -0.00033  -0.00033   2.05438
   R19        2.63884  -0.00492   0.00000  -0.01046  -0.01046   2.62838
   R20        2.05455  -0.00043   0.00000  -0.00065  -0.00065   2.05391
   R21        2.05802  -0.00183   0.00000  -0.00535  -0.00535   2.05267
   R22        2.72327   0.01013   0.00000   0.02002   0.02002   2.74329
   R23        2.06478   0.00075   0.00000  -0.00025  -0.00025   2.06452
   R24        2.06441  -0.00116   0.00000  -0.00377  -0.00377   2.06063
   R25        2.06123   0.00027   0.00000  -0.00044  -0.00044   2.06078
    A1        1.84827  -0.03202   0.00000  -0.16171  -0.16089   1.68738
    A2        1.85094   0.00706   0.00000   0.02619   0.02648   1.87742
    A3        1.84299   0.00244   0.00000   0.00075   0.00259   1.84557
    A4        1.89246   0.00462   0.00000   0.03613   0.03411   1.92657
    A5        1.85192   0.01125   0.00000   0.06139   0.05970   1.91162
    A6        2.15639  -0.00027   0.00000   0.00113  -0.00198   2.15441
    A7        2.19283  -0.01124   0.00000  -0.03132  -0.03146   2.16137
    A8        2.19344  -0.00884   0.00000  -0.02278  -0.02293   2.17051
    A9        1.89691   0.02008   0.00000   0.05423   0.05425   1.95115
   A10        1.88533  -0.01008   0.00000  -0.02310  -0.02317   1.86216
   A11        1.89761  -0.00275   0.00000  -0.01006  -0.01041   1.88720
   A12        2.18710  -0.00201   0.00000  -0.00551  -0.00542   2.18168
   A13        1.88552   0.01213   0.00000   0.03690   0.03669   1.92221
   A14        2.21009  -0.01010   0.00000  -0.03118  -0.03108   2.17901
   A15        2.12442  -0.00239   0.00000  -0.00411  -0.00411   2.12031
   A16        2.08340  -0.00197   0.00000  -0.01086  -0.01086   2.07254
   A17        2.07504   0.00436   0.00000   0.01499   0.01499   2.09003
   A18        2.10236  -0.00160   0.00000  -0.00701  -0.00701   2.09535
   A19        2.10904  -0.00169   0.00000  -0.01360  -0.01360   2.09544
   A20        2.07150   0.00330   0.00000   0.02060   0.02060   2.09209
   A21        2.09563  -0.00041   0.00000  -0.00081  -0.00081   2.09482
   A22        2.09580  -0.00089   0.00000  -0.00462  -0.00461   2.09119
   A23        2.09167   0.00130   0.00000   0.00544   0.00544   2.09711
   A24        2.09376   0.00003   0.00000   0.00143   0.00142   2.09518
   A25        2.09581  -0.00030   0.00000  -0.00219  -0.00219   2.09362
   A26        2.09351   0.00028   0.00000   0.00084   0.00084   2.09435
   A27        2.09426   0.00023   0.00000   0.00264   0.00262   2.09688
   A28        2.09637   0.00058   0.00000   0.00014   0.00014   2.09651
   A29        2.09252  -0.00080   0.00000  -0.00273  -0.00273   2.08979
   A30        2.10497  -0.00259   0.00000  -0.01104  -0.01104   2.09393
   A31        2.09563  -0.00154   0.00000  -0.01619  -0.01620   2.07944
   A32        2.08258   0.00413   0.00000   0.02723   0.02723   2.10981
   A33        1.85769  -0.01924   0.00000  -0.05589  -0.05591   1.80178
   A34        2.21043   0.00997   0.00000   0.02472   0.02468   2.23511
   A35        2.21441   0.00924   0.00000   0.03055   0.03047   2.24488
   A36        1.88858   0.00994   0.00000   0.03884   0.03901   1.92759
   A37        1.91751  -0.00352   0.00000  -0.02374  -0.02369   1.89381
   A38        1.92156  -0.00284   0.00000  -0.01584  -0.01584   1.90572
   A39        1.92935  -0.00340   0.00000  -0.01286  -0.01264   1.91671
   A40        1.92284  -0.00291   0.00000  -0.01132  -0.01120   1.91163
   A41        1.88424   0.00255   0.00000   0.02404   0.02391   1.90815
    D1        2.28320  -0.00073   0.00000  -0.02161  -0.02119   2.26201
    D2       -0.85179  -0.00120   0.00000  -0.04933  -0.04833  -0.90012
    D3        0.30313   0.00465   0.00000   0.01061   0.01152   0.31465
    D4       -2.83186   0.00418   0.00000  -0.01712  -0.01561  -2.84747
    D5       -2.04673  -0.00687   0.00000  -0.06365  -0.06587  -2.11260
    D6        1.10147  -0.00734   0.00000  -0.09138  -0.09300   1.00846
    D7       -3.12210  -0.00149   0.00000  -0.03151  -0.03188   3.12921
    D8        0.01383  -0.00116   0.00000  -0.00793  -0.00796   0.00586
    D9        3.09305   0.00255   0.00000   0.04976   0.04983  -3.14031
   D10       -0.08565   0.00161   0.00000   0.03272   0.03327  -0.05237
   D11       -0.04288   0.00223   0.00000   0.02620   0.02579  -0.01708
   D12        3.06161   0.00129   0.00000   0.00916   0.00924   3.07085
   D13        0.02215  -0.00032   0.00000  -0.01375  -0.01367   0.00849
   D14        3.12421   0.00063   0.00000   0.02197   0.02247  -3.13651
   D15       -0.04884   0.00115   0.00000   0.02847   0.02911  -0.01972
   D16       -2.27845  -0.00126   0.00000  -0.07031  -0.07039  -2.34883
   D17        0.83585  -0.00105   0.00000  -0.06948  -0.06954   0.76630
   D18        0.90041  -0.00230   0.00000  -0.07933  -0.07927   0.82114
   D19       -2.26848  -0.00208   0.00000  -0.07850  -0.07843  -2.34691
   D20        0.05634  -0.00255   0.00000  -0.03470  -0.03417   0.02217
   D21       -3.04804  -0.00162   0.00000  -0.01744  -0.01731  -3.06535
   D22       -3.11723  -0.00183   0.00000  -0.02747  -0.02695   3.13900
   D23        0.06157  -0.00090   0.00000  -0.01021  -0.01009   0.05148
   D24        3.14086  -0.00032   0.00000  -0.00673  -0.00672   3.13414
   D25        0.02549  -0.00041   0.00000  -0.00652  -0.00653   0.01896
   D26        0.02644  -0.00044   0.00000  -0.00716  -0.00718   0.01926
   D27       -3.08893  -0.00053   0.00000  -0.00696  -0.00699  -3.09592
   D28        3.14103   0.00043   0.00000   0.00865   0.00863  -3.13352
   D29       -0.00443   0.00026   0.00000   0.00670   0.00672   0.00230
   D30       -0.02709   0.00054   0.00000   0.00917   0.00917  -0.01792
   D31        3.11064   0.00037   0.00000   0.00721   0.00726   3.11790
   D32       -0.00885   0.00019   0.00000   0.00224   0.00220  -0.00665
   D33       -3.13637   0.00006   0.00000   0.00063   0.00062  -3.13576
   D34        3.10708   0.00021   0.00000   0.00154   0.00150   3.10858
   D35       -0.02045   0.00007   0.00000  -0.00007  -0.00008  -0.02052
   D36       -0.00856   0.00008   0.00000   0.00122   0.00120  -0.00735
   D37       -3.13479  -0.00021   0.00000  -0.00425  -0.00423  -3.13902
   D38        3.11900   0.00020   0.00000   0.00274   0.00271   3.12171
   D39       -0.00724  -0.00010   0.00000  -0.00273  -0.00272  -0.00996
   D40        0.00795   0.00000   0.00000   0.00071   0.00075   0.00869
   D41       -3.12460  -0.00029   0.00000  -0.00608  -0.00604  -3.13064
   D42        3.13420   0.00030   0.00000   0.00614   0.00615   3.14036
   D43        0.00166   0.00000   0.00000  -0.00065  -0.00063   0.00102
   D44        0.01010  -0.00037   0.00000  -0.00615  -0.00611   0.00399
   D45       -3.12766  -0.00019   0.00000  -0.00411  -0.00407  -3.13173
   D46       -3.14052  -0.00007   0.00000   0.00064   0.00067  -3.13985
   D47        0.00491   0.00011   0.00000   0.00268   0.00270   0.00761
   D48        1.56050   0.00077   0.00000  -0.01091  -0.01077   1.54973
   D49       -2.61480   0.00066   0.00000  -0.01686  -0.01690  -2.63170
   D50       -0.54186  -0.00012   0.00000  -0.01165  -0.01145  -0.55330
   D51       -1.62558  -0.00092   0.00000  -0.03310  -0.03315  -1.65873
   D52        0.48231  -0.00104   0.00000  -0.03904  -0.03928   0.44302
   D53        2.55525  -0.00181   0.00000  -0.03383  -0.03383   2.52142
         Item               Value     Threshold  Converged?
 Maximum Force            0.032022     0.000450     NO 
 RMS     Force            0.006069     0.000300     NO 
 Maximum Displacement     0.442493     0.001800     NO 
 RMS     Displacement     0.082238     0.001200     NO 
 Predicted change in Energy=-8.963279D-03
 GradGradGradGradGradGradGradGradGradGradGradGradGradGradGradGradGradGrad

                          Input orientation:                          
 ---------------------------------------------------------------------
 Center     Atomic      Atomic             Coordinates (Angstroms)
 Number     Number       Type             X           Y           Z
 ---------------------------------------------------------------------
      1          9           0        4.094176   -1.012776   -0.193717
      2         16           0        4.031482    0.305258    0.724833
      3          6           0        2.314992    0.221633    1.085175
      4          7           0        1.819526    0.298548    2.294113
      5          7           0        0.477127    0.212116    2.169564
      6          6           0        0.190905    0.073901    0.885282
      7          6           0       -1.157345   -0.047244    0.335453
      8          6           0       -1.469149   -1.011429   -0.630388
      9          6           0       -2.765821   -1.106339   -1.127418
     10          6           0       -3.757626   -0.246186   -0.657919
     11          6           0       -3.453637    0.704554    0.316733
     12          6           0       -2.159040    0.804330    0.815342
     13          7           0        1.336338    0.092365    0.144179
     14          6           0        1.481951    0.058977   -1.299802
     15          8           0        4.803205    0.046862    1.906163
     16          8           0        4.284657    1.415066   -0.164360
     17          1           0       -0.704939   -1.703490   -0.975598
     18          1           0       -3.004900   -1.859976   -1.873272
     19          1           0       -4.770555   -0.322884   -1.045151
     20          1           0       -4.228172    1.368894    0.690976
     21          1           0       -1.911090    1.534014    1.580825
     22          1           0        1.643500   -0.965409   -1.643444
     23          1           0        0.572957    0.460535   -1.748737
     24          1           0        2.331458    0.678679   -1.588832
 ---------------------------------------------------------------------
                    Distance matrix (angstroms):
                    1          2          3          4          5
     1  F    0.000000
     2  S    1.607756   0.000000
     3  C    2.514921   1.755898   0.000000
     4  N    3.617029   2.712089   1.308790   0.000000
     5  N    4.490936   3.837884   2.133949   1.350932   0.000000
     6  C    4.192927   3.850883   2.138581   2.165105   1.323030
     7  C    5.365701   5.215342   3.562513   3.580179   2.470371
     8  C    5.580436   5.816118   4.333973   4.591746   3.622815
     9  C    6.923880   7.185177   5.698573   5.891179   4.808860
    10  C    7.902781   7.930088   6.335134   6.333708   5.112518
    11  C    7.757530   7.506862   5.839589   5.646337   4.373373
    12  C    6.589597   6.211266   4.519879   4.274526   3.022253
    13  N    2.990182   2.765191   1.363799   2.213187   2.203354
    14  C    3.032458   3.264952   2.531508   3.617676   3.615194
    15  O    2.456634   1.434527   2.625980   3.019303   4.337239
    16  O    2.435480   1.444450   2.620152   3.656169   4.625102
    17  H    4.911205   5.418507   4.131933   4.590435   3.867671
    18  H    7.344082   7.806988   6.433254   6.730632   5.723863
    19  H    8.932209   9.000181   7.418879   7.413908   6.177280
    20  H    8.701524   8.327926   6.654667   6.347467   5.065985
    21  H    6.760057   6.128354   4.452840   3.994078   2.792420
    22  H    2.847766   3.595246   3.050465   4.139194   4.157647
    23  H    4.121616   4.254886   3.335089   4.233770   3.927337
    24  H    2.813280   2.895267   2.712835   3.934950   4.216843
                    6          7          8          9         10
     6  C    0.000000
     7  C    1.461083   0.000000
     8  C    2.496192   1.399902   0.000000
     9  C    3.766451   2.418444   1.391907   0.000000
    10  C    4.251449   2.790668   2.413189   1.394263   0.000000
    11  C    3.742146   2.416300   2.789235   2.416195   1.395085
    12  C    2.461841   1.399594   2.421377   2.791623   2.414448
    13  N    1.364401   2.504901   3.112727   4.458874   5.167828
    14  C    2.538034   3.106642   3.209809   4.408088   5.287561
    15  O    4.724007   6.164750   6.848102   8.235451   8.941377
    16  O    4.433878   5.657167   6.261896   7.549450   8.226887
    17  H    2.724799   2.160250   1.087261   2.151017   3.397581
    18  H    4.643562   3.402635   2.150192   1.086934   2.155921
    19  H    5.338548   3.877800   3.397853   2.153956   1.087132
    20  H    4.609013   3.400268   3.876100   3.401736   2.156250
    21  H    2.652187   2.149293   3.400596   3.877707   3.404524
    22  H    3.095909   3.550182   3.273680   4.441650   5.537211
    23  H    2.689518   2.756017   2.754556   3.740129   4.521425
    24  H    3.327005   4.049886   4.268453   5.420465   6.228878
                   11         12         13         14         15
    11  C    0.000000
    12  C    1.390880   0.000000
    13  N    4.832019   3.629741   0.000000
    14  C    5.233544   4.276237   1.451689   0.000000
    15  O    8.434115   7.087772   3.889194   4.616177   0.000000
    16  O    7.785722   6.546300   3.246124   3.314116   2.535339
    17  H    3.876098   3.407498   2.940375   2.827346   6.458168
    18  H    3.402102   3.878485   5.169922   4.913561   8.881817
    19  H    2.155141   3.398832   6.235469   6.269329  10.025161
    20  H    1.086881   2.148373   5.735179   6.187454   9.208161
    21  H    2.159950   1.086224   3.832505   4.688974   6.884710
    22  H    5.710681   4.861781   2.099722   1.092499   4.858822
    23  H    4.532016   3.762513   2.073989   1.090441   5.605749
    24  H    6.090909   5.095136   2.082632   1.090518   4.327091
                   16         17         18         19         20
    16  O    0.000000
    17  H    5.939660   0.000000
    18  H    8.172143   2.473889   0.000000
    19  H    9.262457   4.294199   2.483137   0.000000
    20  H    8.555816   4.962881   4.300856   2.484035   0.000000
    21  H    6.437942   4.297852   4.964511   4.303529   2.487562
    22  H    3.850981   2.550675   4.739271   6.473862   6.736098
    23  H    4.147058   2.629404   4.266303   5.446273   5.461515
    24  H    2.527127   3.907747   5.916282   7.192864   6.978729
                   21         22         23         24
    21  H    0.000000
    22  H    5.410928   0.000000
    23  H    4.290551   1.786187   0.000000
    24  H    5.364470   1.783057   1.779180   0.000000
 Stoichiometry    C9H8FN3O2S
 Framework group  C1[X(C9H8FN3O2S)]
 Deg. of freedom    66
 Full point group                 C1      NOp   1
 Largest Abelian subgroup         C1      NOp   1
 Largest concise Abelian subgroup C1      NOp   1
                         Standard orientation:                         
 ---------------------------------------------------------------------
 Center     Atomic      Atomic             Coordinates (Angstroms)
 Number     Number       Type             X           Y           Z
 ---------------------------------------------------------------------
      1          9           0        2.926227    1.351921   -0.796225
      2         16           0        3.051648    0.034517    0.116789
      3          6           0        1.397588   -0.516680   -0.091652
      4          7           0        1.074327   -1.735024   -0.443890
      5          7           0       -0.275176   -1.782129   -0.484376
      6          6           0       -0.738648   -0.584798   -0.165003
      7          6           0       -2.153086   -0.226495   -0.089167
      8          6           0       -2.638523    0.958356   -0.655033
      9          6           0       -3.993520    1.266018   -0.572982
     10          6           0       -4.870290    0.390360    0.066131
     11          6           0       -4.392043   -0.799118    0.616299
     12          6           0       -3.038652   -1.110228    0.538250
     13          7           0        0.295669    0.260036    0.114343
     14          6           0        0.243021    1.630988    0.588811
     15          8           0        3.962631   -0.860248   -0.536948
     16          8           0        3.235354    0.510287    1.468207
     17          1           0       -1.962120    1.627887   -1.180716
     18          1           0       -4.367137    2.184385   -1.018446
     19          1           0       -5.928764    0.630625    0.127469
     20          1           0       -5.076072   -1.487430    1.105830
     21          1           0       -2.654754   -2.037213    0.954426
     22          1           0        0.307239    2.327852   -0.250123
     23          1           0       -0.697954    1.777540    1.119990
     24          1           0        1.074456    1.805883    1.272447
 ---------------------------------------------------------------------
 Rotational constants (GHZ):           1.4606517           0.2448374           0.2260364
 Standard basis: 6-31G(d) (6D, 7F)
 There are   260 symmetry adapted cartesian basis functions of A   symmetry.
 There are   260 symmetry adapted basis functions of A   symmetry.
   260 basis functions,   504 primitive gaussians,   260 cartesian basis functions
    62 alpha electrons       62 beta electrons
       nuclear repulsion energy      1232.4416563807 Hartrees.
 NAtoms=   24 NActive=   24 NUniq=   24 SFac= 1.00D+00 NAtFMM=   60 NAOKFM=F Big=F
 Integral buffers will be    131072 words long.
 Raffenetti 2 integral format.
 Two-electron integral symmetry is turned on.
 R6APFD:  NTU= -4 IXU= 1 FactS= 1.050
 Nuclear repulsion after empirical dispersion term =     1232.4183625909 Hartrees.
 One-electron integrals computed using PRISM.
 NBasis=   260 RedAO= T EigKep=  4.60D-04  NBF=   260
 NBsUse=   260 1.00D-06 EigRej= -1.00D+00 NBFU=   260
 Initial guess from the checkpoint file:  "RVBMBNJSTWFMQY-UHFFFAOYSA-N_conf_0_0.chk"
 B after Tr=     0.000000    0.000000    0.000000
         Rot=    0.999942    0.010411   -0.000907   -0.002724 Ang=   1.24 deg.
 ExpMin= 1.17D-01 ExpMax= 2.19D+04 ExpMxC= 3.30D+03 IAcc=2 IRadAn=         4 AccDes= 0.00D+00
 Harris functional with IExCor= 3731 and IRadAn=       4 diagonalized for initial guess.
 HarFok:  IExCor= 3731 AccDes= 0.00D+00 IRadAn=         4 IDoV= 1 UseB2=F ITyADJ=14
 ICtDFT=  3500011 ScaDFX=  1.000000  1.000000  1.000000  1.000000
 FoFCou: FMM=F IPFlag=           0 FMFlag=      100000 FMFlg1=           0
         NFxFlg=           0 DoJE=T BraDBF=F KetDBF=T FulRan=T
         wScrn=  0.000000 ICntrl=       500 IOpCl=  0 I1Cent=   200000004 NGrid=           0
         NMat0=    1 NMatS0=      1 NMatT0=    0 NMatD0=    1 NMtDS0=    0 NMtDT0=    0
 Petite list used in FoFCou.
 Keep R1 ints in memory in canonical form, NReq=584530731.
 Requested convergence on RMS density matrix=1.00D-08 within  32 cycles.
 Requested convergence on MAX density matrix=1.00D-06.
 Requested convergence on             energy=1.00D-06.
 No special actions if energy rises.
 Integral accuracy reduced to 1.0D-05 until final iterations.
 Initial convergence to 1.0D-05 achieved.  Increase integral accuracy.
 SCF Done:  E(RAPFD) =  -1159.72631824     A.U. after   13 cycles
            NFock= 13  Conv=0.45D-08     -V/T= 2.0068
 QCSCF skips out because SCF is already converged.
 R6APFD:  NTU= -4 IXU= 1 FactS= 1.050
 Calling FoFJK, ICntrl=      2127 FMM=F ISym2X=0 I1Cent= 0 IOpClX= 0 NMat=1 NMatS=1 NMatT=0.
 ***** Axes restored to original set *****
 -------------------------------------------------------------------
 Center     Atomic                   Forces (Hartrees/Bohr)
 Number     Number              X              Y              Z
 -------------------------------------------------------------------
      1        9           0.001590751   -0.002302383   -0.001946941
      2       16          -0.001241338    0.003978512    0.002686881
      3        6          -0.002217658   -0.001590580    0.000816274
      4        7           0.001927751   -0.000230987    0.000904269
      5        7          -0.001734254    0.000223823    0.000267685
      6        6          -0.000254704    0.001528006    0.000391570
      7        6          -0.000948144   -0.000006730    0.000071907
      8        6           0.000023837    0.000431939   -0.001112819
      9        6          -0.000116276    0.000080667    0.000165767
     10        6          -0.000057526   -0.000052886    0.000067582
     11        6           0.000083196   -0.000407824    0.000169672
     12        6          -0.000612049   -0.000091995    0.000730633
     13        7           0.001052007   -0.000301213   -0.000733202
     14        6           0.000279132   -0.000181885   -0.000660390
     15        8           0.000825895   -0.000229395    0.000287784
     16        8           0.000799841   -0.000788466   -0.001734676
     17        1           0.000048775    0.000113903    0.000136620
     18        1           0.000072636   -0.000025010    0.000006712
     19        1           0.000036429    0.000059364   -0.000099217
     20        1           0.000029734    0.000061918   -0.000052249
     21        1           0.000350255   -0.000069249   -0.000142335
     22        1           0.000339086    0.000157414   -0.000467151
     23        1          -0.000219184   -0.000504832    0.000135035
     24        1          -0.000058193    0.000147888    0.000110590
 -------------------------------------------------------------------
 Cartesian Forces:  Max     0.003978512 RMS     0.000960311

 GradGradGradGradGradGradGradGradGradGradGradGradGradGradGradGradGradGrad
 Berny optimization.
 Using GEDIIS/GDIIS optimizer.
 FormGI is forming the generalized inverse of G from B-inverse, IUseBI=4.
 Internal  Forces:  Max     0.003061803 RMS     0.000701436
 Search for a local minimum.
 Step number   2 out of a maximum of  129
 All quantities printed in internal units (Hartrees-Bohrs-Radians)
 Mixed Optimization -- En-DIIS/RFO-DIIS
 Update second derivatives using D2CorX and points    1    2
 DE= -8.55D-03 DEPred=-8.96D-03 R= 9.54D-01
 TightC=F SS=  1.41D+00  RLast= 3.26D-01 DXNew= 5.0454D-01 9.7830D-01
 Trust test= 9.54D-01 RLast= 3.26D-01 DXMaxT set to 5.05D-01
 ITU=  1  0
 Use linear search instead of GDIIS.
     Eigenvalues ---    0.00136   0.00235   0.00275   0.00612   0.01081
     Eigenvalues ---    0.01562   0.01726   0.01771   0.01916   0.02184
     Eigenvalues ---    0.02372   0.02570   0.02679   0.02755   0.02815
     Eigenvalues ---    0.04382   0.05652   0.06251   0.06412   0.11299
     Eigenvalues ---    0.11712   0.11995   0.12517   0.12679   0.12933
     Eigenvalues ---    0.13902   0.14147   0.16023   0.16335   0.16527
     Eigenvalues ---    0.17918   0.18896   0.19009   0.19154   0.19332
     Eigenvalues ---    0.19392   0.19548   0.20985   0.21866   0.24577
     Eigenvalues ---    0.28956   0.29790   0.31837   0.32549   0.33643
     Eigenvalues ---    0.34909   0.35444   0.36037   0.36229   0.36478
     Eigenvalues ---    0.36483   0.36639   0.36725   0.39273   0.40703
     Eigenvalues ---    0.42182   0.42587   0.43765   0.46340   0.47826
     Eigenvalues ---    0.48186   0.50487   0.51949   0.57623   0.67702
     Eigenvalues ---    0.68394
 RFO step:  Lambda=-1.79347139D-03 EMin= 1.35672183D-03
 Quartic linear search produced a step of  0.02614.
 Iteration  1 RMS(Cart)=  0.15610030 RMS(Int)=  0.01015257
 Iteration  2 RMS(Cart)=  0.01627954 RMS(Int)=  0.00008915
 Iteration  3 RMS(Cart)=  0.00015638 RMS(Int)=  0.00003875
 Iteration  4 RMS(Cart)=  0.00000002 RMS(Int)=  0.00003875
 Variable       Old X    -DE/DX   Delta X   Delta X   Delta X     New X
                                 (Linear)    (Quad)   (Total)
    R1        3.03822   0.00306   0.00077   0.00788   0.00864   3.04686
    R2        3.31817   0.00211   0.00010   0.00327   0.00337   3.32154
    R3        2.71086   0.00072  -0.00055   0.00116   0.00061   2.71147
    R4        2.72962   0.00060  -0.00020   0.00274   0.00254   2.73216
    R5        2.47326   0.00040  -0.00048   0.00145   0.00099   2.47424
    R6        2.57721   0.00057  -0.00047   0.00320   0.00275   2.57995
    R7        2.55289   0.00147  -0.00102  -0.00013  -0.00117   2.55173
    R8        2.50016   0.00048   0.00017   0.00382   0.00396   2.50413
    R9        2.76105   0.00102   0.00001  -0.00148  -0.00147   2.75957
   R10        2.57834   0.00180  -0.00065   0.00586   0.00521   2.58355
   R11        2.64543   0.00013  -0.00010   0.00144   0.00134   2.64677
   R12        2.64485   0.00007  -0.00008   0.00274   0.00266   2.64751
   R13        2.63032  -0.00005  -0.00027   0.00028   0.00001   2.63033
   R14        2.05462  -0.00008   0.00002  -0.00071  -0.00069   2.05394
   R15        2.63478  -0.00002   0.00003  -0.00079  -0.00077   2.63401
   R16        2.05401  -0.00000  -0.00002   0.00001  -0.00001   2.05400
   R17        2.63633   0.00003   0.00009   0.00075   0.00083   2.63716
   R18        2.05438  -0.00000  -0.00001  -0.00009  -0.00010   2.05429
   R19        2.62838  -0.00007  -0.00027  -0.00189  -0.00217   2.62622
   R20        2.05391  -0.00000  -0.00002   0.00002   0.00001   2.05391
   R21        2.05267  -0.00007  -0.00014  -0.00058  -0.00072   2.05195
   R22        2.74329   0.00092   0.00052   0.00203   0.00256   2.74585
   R23        2.06452   0.00005  -0.00001   0.00119   0.00118   2.06570
   R24        2.06063  -0.00006  -0.00010  -0.00045  -0.00055   2.06009
   R25        2.06078   0.00001  -0.00001   0.00013   0.00012   2.06090
    A1        1.68738   0.00302  -0.00421   0.02781   0.02361   1.71099
    A2        1.87742  -0.00153   0.00069  -0.00586  -0.00520   1.87222
    A3        1.84557  -0.00239   0.00007  -0.01219  -0.01207   1.83350
    A4        1.92657   0.00057   0.00089  -0.00184  -0.00102   1.92555
    A5        1.91162   0.00160   0.00156  -0.00436  -0.00284   1.90878
    A6        2.15441  -0.00068  -0.00005   0.00234   0.00220   2.15661
    A7        2.16137  -0.00067  -0.00082  -0.00200  -0.00293   2.15844
    A8        2.17051   0.00002  -0.00060  -0.00056  -0.00127   2.16924
    A9        1.95115   0.00065   0.00142   0.00216   0.00353   1.95468
   A10        1.86216  -0.00028  -0.00061  -0.00137  -0.00195   1.86020
   A11        1.88720   0.00004  -0.00027   0.00299   0.00269   1.88989
   A12        2.18168  -0.00098  -0.00014  -0.02288  -0.02302   2.15866
   A13        1.92221   0.00003   0.00096  -0.00245  -0.00150   1.92071
   A14        2.17901   0.00095  -0.00081   0.02534   0.02453   2.20354
   A15        2.12031   0.00037  -0.00011   0.01524   0.01509   2.13540
   A16        2.07254  -0.00042  -0.00028  -0.01416  -0.01448   2.05806
   A17        2.09003   0.00004   0.00039  -0.00140  -0.00103   2.08901
   A18        2.09535  -0.00006  -0.00018   0.00002  -0.00016   2.09519
   A19        2.09544  -0.00014  -0.00036   0.00271   0.00234   2.09778
   A20        2.09209   0.00020   0.00054  -0.00292  -0.00240   2.08970
   A21        2.09482   0.00004  -0.00002   0.00096   0.00095   2.09576
   A22        2.09119  -0.00010  -0.00012  -0.00144  -0.00157   2.08962
   A23        2.09711   0.00006   0.00014   0.00047   0.00061   2.09772
   A24        2.09518  -0.00001   0.00004  -0.00095  -0.00091   2.09427
   A25        2.09362  -0.00002  -0.00006   0.00029   0.00023   2.09385
   A26        2.09435   0.00003   0.00002   0.00067   0.00070   2.09504
   A27        2.09688   0.00006   0.00007   0.00112   0.00119   2.09807
   A28        2.09651  -0.00002   0.00000  -0.00033  -0.00033   2.09618
   A29        2.08979  -0.00005  -0.00007  -0.00078  -0.00085   2.08894
   A30        2.09393  -0.00007  -0.00029   0.00020  -0.00008   2.09385
   A31        2.07944  -0.00033  -0.00042  -0.00494  -0.00536   2.07407
   A32        2.10981   0.00040   0.00071   0.00475   0.00545   2.11526
   A33        1.80178  -0.00043  -0.00146  -0.00113  -0.00259   1.79919
   A34        2.23511  -0.00003   0.00065  -0.00851  -0.00790   2.22721
   A35        2.24488   0.00045   0.00080   0.00900   0.00974   2.25462
[...]
 ZZZY=             -4.3112 XXYY=           -921.3283 XXZZ=           -921.5370 YYZZ=           -164.3721
 XXYZ=            -63.3375 YYXZ=             -0.6591 ZZXY=              1.4554
 N-N= 1.230181545216D+03 E-N=-5.182504444869D+03  KE= 1.151766984807D+03
 Evaluate density.
 Using the total density.
 Monte-Carlo method of calculating molar volume:
 based on  0.001 e/bohr**3 density envelope.
 Number of points per bohr**3 =   20 CutOff= 1.00D-04
 Using the CI density.
 There are       424 points.  Will hold       424 in memory.
 LenV=  1073562028 MDV=  1073741824.
 Box volume = 9555.712 fraction occupied=0.151
 Integrated density= 1.0436766517389148D+02 error=-1.9632334826108519D+01
 Molar volume = 1442.372 bohr**3/mol (128.716 cm**3/mol)
 Recommended a0 for SCRF calculation =  4.58 angstrom (  8.66 bohr)
 ******************************Gaussian NBO Version 3.1******************************
             N A T U R A L   A T O M I C   O R B I T A L   A N D
          N A T U R A L   B O N D   O R B I T A L   A N A L Y S I S
 ******************************Gaussian NBO Version 3.1******************************
       /RESON  / : Allow strongly delocalized NBO set

 Analyzing the CI density

 Job title: RVBMBNJSTWFMQY-UHFFFAOYSA-N_conf_0                              

 Storage needed:    204812 in NPA (1073738704 available)


 NATURAL POPULATIONS:  Natural atomic orbital occupancies 
                                                          
   NAO  Atom  No  lang   Type(AO)    Occupancy
 --------------------------------------------
     1    F    1  S      Cor( 1S)     1.99997
     2    F    1  S      Val( 2S)     1.93100
     3    F    1  S      Ryd( 3S)     0.00284
     4    F    1  S      Ryd( 4S)     0.00011
     5    F    1  px     Val( 2p)     1.94721
     6    F    1  px     Ryd( 3p)     0.00018
     7    F    1  py     Val( 2p)     1.81005
     8    F    1  py     Ryd( 3p)     0.00032
     9    F    1  pz     Val( 2p)     1.81472
    10    F    1  pz     Ryd( 3p)     0.00036
    11    F    1  dxy    Ryd( 3d)     0.00099
    12    F    1  dxz    Ryd( 3d)     0.00101
    13    F    1  dyz    Ryd( 3d)     0.00179
    14    F    1  dx2y2  Ryd( 3d)     0.00100
    15    F    1  dz2    Ryd( 3d)     0.00158
 
    16    S    2  S      Cor( 1S)     2.00000
    17    S    2  S      Cor( 2S)     1.99902
    18    S    2  S      Val( 3S)     1.01127
    19    S    2  S      Ryd( 4S)     0.00372
    20    S    2  S      Ryd( 5S)     0.00031
    21    S    2  px     Cor( 2p)     1.99991
    22    S    2  px     Val( 3p)     0.85474
    23    S    2  px     Ryd( 4p)     0.00995
    24    S    2  py     Cor( 2p)     1.99986
    25    S    2  py     Val( 3p)     0.75872
    26    S    2  py     Ryd( 4p)     0.01025
    27    S    2  pz     Cor( 2p)     1.99988
    28    S    2  pz     Val( 3p)     0.77850
    29    S    2  pz     Ryd( 4p)     0.01164
    30    S    2  dxy    Ryd( 3d)     0.02682
    31    S    2  dxz    Ryd( 3d)     0.03355
    32    S    2  dyz    Ryd( 3d)     0.04054
    33    S    2  dx2y2  Ryd( 3d)     0.03906
    34    S    2  dz2    Ryd( 3d)     0.03710
 
    35    C    3  S      Cor( 1S)     1.99889
    36    C    3  S      Val( 2S)     0.89937
    37    C    3  S      Ryd( 3S)     0.00535
    38    C    3  S      Ryd( 4S)     0.00018
    39    C    3  px     Val( 2p)     1.02206
    40    C    3  px     Ryd( 3p)     0.00776
    41    C    3  py     Val( 2p)     0.88653
    42    C    3  py     Ryd( 3p)     0.01571
    43    C    3  pz     Val( 2p)     1.20012
    44    C    3  pz     Ryd( 3p)     0.00901
    45    C    3  dxy    Ryd( 3d)     0.00164
    46    C    3  dxz    Ryd( 3d)     0.00165
    47    C    3  dyz    Ryd( 3d)     0.00130
    48    C    3  dx2y2  Ryd( 3d)     0.00120
    49    C    3  dz2    Ryd( 3d)     0.00066
 
    50    N    4  S      Cor( 1S)     1.99884
    51    N    4  S      Val( 2S)     1.33442
    52    N    4  S      Ryd( 3S)     0.00084
    53    N    4  S      Ryd( 4S)     0.00002
    54    N    4  px     Val( 2p)     1.12019
    55    N    4  px     Ryd( 3p)     0.00388
    56    N    4  py     Val( 2p)     1.27419
    57    N    4  py     Ryd( 3p)     0.00514
    58    N    4  pz     Val( 2p)     1.34847
    59    N    4  pz     Ryd( 3p)     0.00336
    60    N    4  dxy    Ryd( 3d)     0.00344
    61    N    4  dxz    Ryd( 3d)     0.00280
    62    N    4  dyz    Ryd( 3d)     0.00285
    63    N    4  dx2y2  Ryd( 3d)     0.00315
    64    N    4  dz2    Ryd( 3d)     0.00253
 
    65    N    5  S      Cor( 1S)     1.99883
    66    N    5  S      Val( 2S)     1.32508
    67    N    5  S      Ryd( 3S)     0.00084
    68    N    5  S      Ryd( 4S)     0.00001
    69    N    5  px     Val( 2p)     1.09869
    70    N    5  px     Ryd( 3p)     0.00287
    71    N    5  py     Val( 2p)     1.22593
    72    N    5  py     Ryd( 3p)     0.00458
    73    N    5  pz     Val( 2p)     1.38002
    74    N    5  pz     Ryd( 3p)     0.00172
    75    N    5  dxy    Ryd( 3d)     0.00141
    76    N    5  dxz    Ryd( 3d)     0.00157
    77    N    5  dyz    Ryd( 3d)     0.00160
    78    N    5  dx2y2  Ryd( 3d)     0.00096
    79    N    5  dz2    Ryd( 3d)     0.00074
 
    80    C    6  S      Cor( 1S)     1.99908
    81    C    6  S      Val( 2S)     0.79471
    82    C    6  S      Ryd( 3S)     0.00338
    83    C    6  S      Ryd( 4S)     0.00017
    84    C    6  px     Val( 2p)     0.97247
    85    C    6  px     Ryd( 3p)     0.00563
    86    C    6  py     Val( 2p)     0.83058
    87    C    6  py     Ryd( 3p)     0.00801
    88    C    6  pz     Val( 2p)     1.04010
    89    C    6  pz     Ryd( 3p)     0.00373
    90    C    6  dxy    Ryd( 3d)     0.00178
    91    C    6  dxz    Ryd( 3d)     0.00187
    92    C    6  dyz    Ryd( 3d)     0.00165
    93    C    6  dx2y2  Ryd( 3d)     0.00147
    94    C    6  dz2    Ryd( 3d)     0.00078
 
    95    C    7  S      Cor( 1S)     1.99899
    96    C    7  S      Val( 2S)     0.86667
    97    C    7  S      Ryd( 3S)     0.00074
    98    C    7  S      Ryd( 4S)     0.00006
    99    C    7  px     Val( 2p)     1.05691
   100    C    7  px     Ryd( 3p)     0.00478
   101    C    7  py     Val( 2p)     1.11471
   102    C    7  py     Ryd( 3p)     0.00424
   103    C    7  pz     Val( 2p)     1.09632
   104    C    7  pz     Ryd( 3p)     0.00197
   105    C    7  dxy    Ryd( 3d)     0.00049
   106    C    7  dxz    Ryd( 3d)     0.00073
   107    C    7  dyz    Ryd( 3d)     0.00053
   108    C    7  dx2y2  Ryd( 3d)     0.00075
   109    C    7  dz2    Ryd( 3d)     0.00050
 
   110    C    8  S      Cor( 1S)     1.99905
   111    C    8  S      Val( 2S)     0.94874
   112    C    8  S      Ryd( 3S)     0.00078
   113    C    8  S      Ryd( 4S)     0.00004
   114    C    8  px     Val( 2p)     1.12654
   115    C    8  px     Ryd( 3p)     0.00408
   116    C    8  py     Val( 2p)     1.11095
   117    C    8  py     Ryd( 3p)     0.00404
   118    C    8  pz     Val( 2p)     1.04562
   119    C    8  pz     Ryd( 3p)     0.00193
   120    C    8  dxy    Ryd( 3d)     0.00073
   121    C    8  dxz    Ryd( 3d)     0.00064
   122    C    8  dyz    Ryd( 3d)     0.00052
   123    C    8  dx2y2  Ryd( 3d)     0.00051
   124    C    8  dz2    Ryd( 3d)     0.00036
 
   125    C    9  S      Cor( 1S)     1.99910
   126    C    9  S      Val( 2S)     0.96227
   127    C    9  S      Ryd( 3S)     0.00066
   128    C    9  S      Ryd( 4S)     0.00003
   129    C    9  px     Val( 2p)     1.07495
   130    C    9  px     Ryd( 3p)     0.00455
   131    C    9  py     Val( 2p)     1.16057
   132    C    9  py     Ryd( 3p)     0.00469
   133    C    9  pz     Val( 2p)     1.02327
   134    C    9  pz     Ryd( 3p)     0.00158
   135    C    9  dxy    Ryd( 3d)     0.00068
   136    C    9  dxz    Ryd( 3d)     0.00061
   137    C    9  dyz    Ryd( 3d)     0.00049
   138    C    9  dx2y2  Ryd( 3d)     0.00065
   139    C    9  dz2    Ryd( 3d)     0.00043
 
   140    C   10  S      Cor( 1S)     1.99910
   141    C   10  S      Val( 2S)     0.96383
   142    C   10  S      Ryd( 3S)     0.00057
   143    C   10  S      Ryd( 4S)     0.00003
   144    C   10  px     Val( 2p)     1.19704
   145    C   10  px     Ryd( 3p)     0.00509
   146    C   10  py     Val( 2p)     1.05807
   147    C   10  py     Ryd( 3p)     0.00405
   148    C   10  pz     Val( 2p)     1.02920
   149    C   10  pz     Ryd( 3p)     0.00206
   150    C   10  dxy    Ryd( 3d)     0.00058
   151    C   10  dxz    Ryd( 3d)     0.00039
   152    C   10  dyz    Ryd( 3d)     0.00044
   153    C   10  dx2y2  Ryd( 3d)     0.00078
   154    C   10  dz2    Ryd( 3d)     0.00051
 
   155    C   11  S      Cor( 1S)     1.99910
   156    C   11  S      Val( 2S)     0.96390
   157    C   11  S      Ryd( 3S)     0.00065
   158    C   11  S      Ryd( 4S)     0.00003
   159    C   11  px     Val( 2p)     1.11539
   160    C   11  px     Ryd( 3p)     0.00482
   161    C   11  py     Val( 2p)     1.11909
   162    C   11  py     Ryd( 3p)     0.00436
   163    C   11  pz     Val( 2p)     1.01770
   164    C   11  pz     Ryd( 3p)     0.00146
   165    C   11  dxy    Ryd( 3d)     0.00076
   166    C   11  dxz    Ryd( 3d)     0.00063
   167    C   11  dyz    Ryd( 3d)     0.00053
   168    C   11  dx2y2  Ryd( 3d)     0.00057
   169    C   11  dz2    Ryd( 3d)     0.00040
 
   170    C   12  S      Cor( 1S)     1.99906
   171    C   12  S      Val( 2S)     0.95084
   172    C   12  S      Ryd( 3S)     0.00071
   173    C   12  S      Ryd( 4S)     0.00004
   174    C   12  px     Val( 2p)     1.07951
   175    C   12  px     Ryd( 3p)     0.00379
   176    C   12  py     Val( 2p)     1.15615
   177    C   12  py     Ryd( 3p)     0.00441
   178    C   12  pz     Val( 2p)     1.02864
   179    C   12  pz     Ryd( 3p)     0.00174
   180    C   12  dxy    Ryd( 3d)     0.00071
   181    C   12  dxz    Ryd( 3d)     0.00061
   182    C   12  dyz    Ryd( 3d)     0.00043
   183    C   12  dx2y2  Ryd( 3d)     0.00058
   184    C   12  dz2    Ryd( 3d)     0.00041
 
   185    N   13  S      Cor( 1S)     1.99919
   186    N   13  S      Val( 2S)     1.17548
   187    N   13  S      Ryd( 3S)     0.00098
   188    N   13  S      Ryd( 4S)     0.00003
   189    N   13  px     Val( 2p)     1.27725
   190    N   13  px     Ryd( 3p)     0.00182
   191    N   13  py     Val( 2p)     1.35450
   192    N   13  py     Ryd( 3p)     0.00374
   193    N   13  pz     Val( 2p)     1.58729
   194    N   13  pz     Ryd( 3p)     0.00554
   195    N   13  dxy    Ryd( 3d)     0.00086
   196    N   13  dxz    Ryd( 3d)     0.00056
   197    N   13  dyz    Ryd( 3d)     0.00106
   198    N   13  dx2y2  Ryd( 3d)     0.00057
   199    N   13  dz2    Ryd( 3d)     0.00066
 
   200    C   14  S      Cor( 1S)     1.99943
   201    C   14  S      Val( 2S)     1.09862
   202    C   14  S      Ryd( 3S)     0.00125
   203    C   14  S      Ryd( 4S)     0.00001
   204    C   14  px     Val( 2p)     1.29431
   205    C   14  px     Ryd( 3p)     0.00384
   206    C   14  py     Val( 2p)     0.86872
   207    C   14  py     Ryd( 3p)     0.00241
   208    C   14  pz     Val( 2p)     1.23300
   209    C   14  pz     Ryd( 3p)     0.00173
   210    C   14  dxy    Ryd( 3d)     0.00021
   211    C   14  dxz    Ryd( 3d)     0.00090
   212    C   14  dyz    Ryd( 3d)     0.00137
   213    C   14  dx2y2  Ryd( 3d)     0.00138
   214    C   14  dz2    Ryd( 3d)     0.00057
 
   215    O   15  S      Cor( 1S)     1.99988
   216    O   15  S      Val( 2S)     1.82424
   217    O   15  S      Ryd( 3S)     0.00122
   218    O   15  S      Ryd( 4S)     0.00012
   219    O   15  px     Val( 2p)     1.67001
   220    O   15  px     Ryd( 3p)     0.00076
   221    O   15  py     Val( 2p)     1.61517
   222    O   15  py     Ryd( 3p)     0.00091
   223    O   15  pz     Val( 2p)     1.74420
   224    O   15  pz     Ryd( 3p)     0.00058
   225    O   15  dxy    Ryd( 3d)     0.00548
   226    O   15  dxz    Ryd( 3d)     0.00331
   227    O   15  dyz    Ryd( 3d)     0.00371
   228    O   15  dx2y2  Ryd( 3d)     0.00580
   229    O   15  dz2    Ryd( 3d)     0.00272
 
   230    O   16  S      Cor( 1S)     1.99988
   231    O   16  S      Val( 2S)     1.83015
   232    O   16  S      Ryd( 3S)     0.00128
   233    O   16  S      Ryd( 4S)     0.00002
   234    O   16  px     Val( 2p)     1.78467
   235    O   16  px     Ryd( 3p)     0.00086
   236    O   16  py     Val( 2p)     1.71245
   237    O   16  py     Ryd( 3p)     0.00061
   238    O   16  pz     Val( 2p)     1.55127
   239    O   16  pz     Ryd( 3p)     0.00070
   240    O   16  dxy    Ryd( 3d)     0.00125
   241    O   16  dxz    Ryd( 3d)     0.00492
   242    O   16  dyz    Ryd( 3d)     0.00588
   243    O   16  dx2y2  Ryd( 3d)     0.00150
   244    O   16  dz2    Ryd( 3d)     0.00663
 
   245    H   17  S      Val( 1S)     0.75576
   246    H   17  S      Ryd( 2S)     0.00104
 
   247    H   18  S      Val( 1S)     0.74894
   248    H   18  S      Ryd( 2S)     0.00077
 
   249    H   19  S      Val( 1S)     0.75122
   250    H   19  S      Ryd( 2S)     0.00075
 
   251    H   20  S      Val( 1S)     0.74850
   252    H   20  S      Ryd( 2S)     0.00077
 
   253    H   21  S      Val( 1S)     0.74747
   254    H   21  S      Ryd( 2S)     0.00070
 
   255    H   22  S      Val( 1S)     0.74986
   256    H   22  S      Ryd( 2S)     0.00191
 
   257    H   23  S      Val( 1S)     0.73085
   258    H   23  S      Ryd( 2S)     0.00091
 
   259    H   24  S      Val( 1S)     0.72160
   260    H   24  S      Ryd( 2S)     0.00153

 WARNING:  1 low occupancy (<1.9990e) core orbital  found on  C    3
           1 low occupancy (<1.9990e) core orbital  found on  N    4
           1 low occupancy (<1.9990e) core orbital  found on  N    5
           1 low occupancy (<1.9990e) core orbital  found on  C    7


 Summary of Natural Population Analysis:                  
                                                          
                                       Natural Population 
                Natural  -----------------------------------------------
    Atom  No    Charge         Core      Valence    Rydberg      Total
 -----------------------------------------------------------------------
      F    1   -0.51313      1.99997     7.50297    0.01018     9.51313
      S    2    2.38517      9.99867     3.40322    0.21294    13.61483
      C    3   -0.05143      1.99889     4.00807    0.04447     6.05143
      N    4   -0.10413      1.99884     5.07727    0.02802     7.10413
      N    5   -0.04485      1.99883     5.02972    0.01630     7.04485
      C    6    0.33459      1.99908     3.63786    0.02847     5.66541
      C    7   -0.14840      1.99899     4.13461    0.01480     6.14840
      C    8   -0.24454      1.99905     4.23184    0.01364     6.24454
      C    9   -0.23454      1.99910     4.22107    0.01437     6.23454
      C   10   -0.26175      1.99910     4.24814    0.01451     6.26175
      C   11   -0.22937      1.99910     4.21607    0.01419     6.22937
      C   12   -0.22762      1.99906     4.21514    0.01342     6.22762
      N   13   -0.40952      1.99919     5.39452    0.01581     7.40952
      C   14   -0.50775      1.99943     4.49465    0.01367     6.50775
      O   15   -0.87811      1.99988     6.85361    0.02461     8.87811
      O   16   -0.90206      1.99988     6.87853    0.02365     8.90206
      H   17    0.24320      0.00000     0.75576    0.00104     0.75680
      H   18    0.25030      0.00000     0.74894    0.00077     0.74970
      H   19    0.24803      0.00000     0.75122    0.00075     0.75197
      H   20    0.25072      0.00000     0.74850    0.00077     0.74928
      H   21    0.25183      0.00000     0.74747    0.00070     0.74817
      H   22    0.24823      0.00000     0.74986    0.00191     0.75177
      H   23    0.26824      0.00000     0.73085    0.00091     0.73176
      H   24    0.27687      0.00000     0.72160    0.00153     0.72313
 =======================================================================
   * Total *    0.00000     39.98707    83.50150    0.51143   124.00000

                                 Natural Population      
 --------------------------------------------------------
   Core                      39.98707 ( 99.9677% of  40)
   Valence                   83.50150 ( 99.4066% of  84)
   Natural Minimal Basis    123.48857 ( 99.5876% of 124)
   Natural Rydberg Basis      0.51143 (  0.4124% of 124)
 --------------------------------------------------------

    Atom  No          Natural Electron Configuration
 ----------------------------------------------------------------------------
      F    1      [core]2S( 1.93)2p( 5.57)3d( 0.01)
      S    2      [core]3S( 1.01)3p( 2.39)3d( 0.18)4p( 0.03)
      C    3      [core]2S( 0.90)2p( 3.11)3S( 0.01)3p( 0.03)3d( 0.01)
      N    4      [core]2S( 1.33)2p( 3.74)3p( 0.01)3d( 0.01)
      N    5      [core]2S( 1.33)2p( 3.70)3p( 0.01)3d( 0.01)
      C    6      [core]2S( 0.79)2p( 2.84)3p( 0.02)3d( 0.01)
      C    7      [core]2S( 0.87)2p( 3.27)3p( 0.01)
      C    8      [core]2S( 0.95)2p( 3.28)3p( 0.01)
      C    9      [core]2S( 0.96)2p( 3.26)3p( 0.01)
      C   10      [core]2S( 0.96)2p( 3.28)3p( 0.01)
      C   11      [core]2S( 0.96)2p( 3.25)3p( 0.01)
      C   12      [core]2S( 0.95)2p( 3.26)3p( 0.01)
      N   13      [core]2S( 1.18)2p( 4.22)3p( 0.01)
      C   14      [core]2S( 1.10)2p( 3.40)3p( 0.01)
      O   15      [core]2S( 1.82)2p( 5.03)3d( 0.02)
      O   16      [core]2S( 1.83)2p( 5.05)3d( 0.02)
      H   17            1S( 0.76)
      H   18            1S( 0.75)
      H   19            1S( 0.75)
      H   20            1S( 0.75)
      H   21            1S( 0.75)
      H   22            1S( 0.75)
      H   23            1S( 0.73)
      H   24            1S( 0.72)


 NBO analysis skipped by request.
 1\1\GINC-DELLA-R3C2N3\SP\RAPFD TD-FC\6-31G(d)\C9H8F1N3O2S1\SHIVAANI\28
 -Jan-2024\0\\# TD(NStates=10, Root=1) APFD/6-31G* volume pop=NPA densi
 ty=current Geom=AllCheck Guess=Read\\RVBMBNJSTWFMQY-UHFFFAOYSA-N_conf_
 0\\0,1\F,0,4.1857045333,-1.1401917182,0.0568022494\S,0,4.035737561,0.3
 111728518,0.7403693916\C,0,2.3108138193,0.232282586,1.0725544822\N,0,1
 .8000111052,0.3579347522,2.2713841222\N,0,0.458461314,0.2827662066,2.1
 284919008\C,0,0.1871900597,0.1053660647,0.8441891858\C,0,-1.1651533649
 ,-0.0218869156,0.3043305311\C,0,-1.4776692599,-0.9237727818,-0.7205723
 768\C,0,-2.7855172023,-1.0236462042,-1.1867743148\C,0,-3.7887540589,-0
 .2331321576,-0.6288175057\C,0,-3.4845195947,0.6513115046,0.4065889022\
 C,0,-2.179832539,0.7578699779,0.874242721\N,0,1.3456584134,0.078776309
 7,0.1196464577\C,0,1.5256244952,-0.0049777704,-1.3201542784\O,0,4.7804
 111629,0.287052469,1.9665514733\O,0,4.28165718,1.2587700085,-0.3229761
 212\H,0,-0.7093801402,-1.5744999876,-1.1296297882\H,0,-3.0227722778,-1
 .7295533202,-1.9785102345\H,0,-4.809367095,-0.3124187649,-0.9946477108
 \H,0,-4.2669617079,1.2615996166,0.8500715168\H,0,-1.927694986,1.437485
 4729,1.6828489555\H,0,1.7545153158,-1.0315579807,-1.6179141273\H,0,0.6
 055385508,0.3236777458,-1.803187362\H,0,2.3462987158,0.6495720347,-1.6
 1488807\\Version=ES64L-G16RevA.03\State=1-A\HF=-1159.7270345\RMSD=3.68
 4e-09\Dipole=-1.8320781,-0.3138623,-0.9576448\Quadrupole=-5.3097197,2.
 0892154,3.2205043,-3.1721005,-1.746662,3.5492457\PG=C01 [X(C9H8F1N3O2S
 1)]\\@


 THE UNDERLYING PHYSICAL LAWS NECESSARY FOR THE 
 MATHEMATICAL THEORY OF A LARGE PART OF PHYSICS AND THE
 WHOLE OF CHEMISTRY ARE THUS COMPLETELY KNOWN, AND THE
 DIFFICULTY IS ONLY THAT THE EXACT APPLICATION OF THESE
 LAWS LEADS TO EQUATIONS MUCH TOO COMPLICATED 
 TO BE SOLUBLE.

                                        -- P. A. M. DIRAC, 1929
 Job cpu time:       0 days  0 hours 23 minutes 29.8 seconds.
 Elapsed time:       0 days  0 hours  6 minutes 11.3 seconds.
 File lengths (MBytes):  RWF=    586 Int=      0 D2E=      0 Chk=    268 Scr=      1
 Normal termination of Gaussian 16 at Sun Jan 28 15:28:25 2024.
