 Entering Gaussian System, Link 0=g16
 Input=HEPOQLABXQGDTL-UHFFFAOYSA-N_conf_0.gjf
 Output=HEPOQLABXQGDTL-UHFFFAOYSA-N_conf_0.log
 Initial command:
 /opt/export/g16/l1.exe "/tmp/Gau-3435696.inp" -scrdir="/tmp/"
 Entering Link 1 = /opt/export/g16/l1.exe PID=   3435697.
  
 Copyright (c) 1988,1990,1992,1993,1995,1998,2003,2009,2016,
            Gaussian, Inc.  All Rights Reserved.
  
 This is part of the Gaussian(R) 16 program.  It is based on
 the Gaussian(R) 09 system (copyright 2009, Gaussian, Inc.),
 the Gaussian(R) 03 system (copyright 2003, Gaussian, Inc.),
 the Gaussian(R) 98 system (copyright 1998, Gaussian, Inc.),
 the Gaussian(R) 94 system (copyright 1995, Gaussian, Inc.),
 the Gaussian 92(TM) system (copyright 1992, Gaussian, Inc.),
 the Gaussian 90(TM) system (copyright 1990, Gaussian, Inc.),
 the Gaussian 88(TM) system (copyright 1988, Gaussian, Inc.),
 the Gaussian 86(TM) system (copyright 1986, Carnegie Mellon
 University), and the Gaussian 82(TM) system (copyright 1983,
 Carnegie Mellon University). Gaussian is a federally registered
 trademark of Gaussian, Inc.
  
 This software contains proprietary and confidential information,
 including trade secrets, belonging to Gaussian, Inc.
  
 This software is provided under written license and may be
 used, copied, transmitted, or stored only in accord with that
 written license.
  
 The following legend is applicable only to US Government
 contracts under FAR:
  
                    RESTRICTED RIGHTS LEGEND
  
 Use, reproduction and disclosure by the US Government is
 subject to restrictions as set forth in subparagraphs (a)
 and (c) of the Commercial Computer Software - Restricted
 Rights clause in FAR 52.227-19.
  
 Gaussian, Inc.
 340 Quinnipiac St., Bldg. 40, Wallingford CT 06492
  
  
 ---------------------------------------------------------------
 Warning -- This program may not be used in any manner that
 competes with the business of Gaussian, Inc. or will provide
 assistance to any competitor of Gaussian, Inc.  The licensee
 of this program is prohibited from giving any competitor of
 Gaussian, Inc. access to this program.  By using this program,
 the user acknowledges that Gaussian, Inc. is engaged in the
 business of creating and licensing software in the field of
 computational chemistry and represents and warrants to the
 licensee that it is not a competitor of Gaussian, Inc. and that
 it will not use this program in any manner prohibited above.
 ---------------------------------------------------------------
  

 Cite this work as:
 Gaussian 16, Revision A.03,
 M. J. Frisch, G. W. Trucks, H. B. Schlegel, G. E. Scuseria, 
 M. A. Robb, J. R. Cheeseman, G. Scalmani, V. Barone, 
 G. A. Petersson, H. Nakatsuji, X. Li, M. Caricato, A. V. Marenich, 
 J. Bloino, B. G. Janesko, R. Gomperts, B. Mennucci, H. P. Hratchian, 
 J. V. Ortiz, A. F. Izmaylov, J. L. Sonnenberg, D. Williams-Young, 
 F. Ding, F. Lipparini, F. Egidi, J. Goings, B. Peng, A. Petrone, 
 T. Henderson, D. Ranasinghe, V. G. Zakrzewski, J. Gao, N. Rega, 
 G. Zheng, W. Liang, M. Hada, M. Ehara, K. Toyota, R. Fukuda, 
 J. Hasegawa, M. Ishida, T. Nakajima, Y. Honda, O. Kitao, H. Nakai, 
 T. Vreven, K. Throssell, J. A. Montgomery, Jr., J. E. Peralta, 
 F. Ogliaro, M. J. Bearpark, J. J. Heyd, E. N. Brothers, K. N. Kudin, 
 V. N. Staroverov, T. A. Keith, R. Kobayashi, J. Normand, 
 K. Raghavachari, A. P. Rendell, J. C. Burant, S. S. Iyengar, 
 J. Tomasi, M. Cossi, J. M. Millam, M. Klene, C. Adamo, R. Cammi, 
 J. W. Ochterski, R. L. Martin, K. Morokuma, O. Farkas, 
 J. B. Foresman, and D. J. Fox, Gaussian, Inc., Wallingford CT, 2016.
 
 ******************************************
 Gaussian 16:  ES64L-G16RevA.03 25-Dec-2016
                28-Jan-2024 
 ******************************************
 %nprocshared=3
 Will use up to    3 processors via shared memory.
 %mem=6GB
 %Chk=HEPOQLABXQGDTL-UHFFFAOYSA-N_conf_0_0.chk
 --------------------------------
 # opt=CalcFc APFD/6-31G* scf=xqc
 --------------------------------
 1/10=4,18=20,19=15,26=3,38=1/1,3;
 2/9=110,12=2,17=6,18=5,40=1/2;
 3/5=1,6=6,7=1,11=2,25=1,30=1,71=2,74=-44,140=1/1,2,3;
 4//1;
 5/5=2,8=3,13=1,38=5/2,8;
 8/6=4,10=90,11=11/1;
 11/6=1,8=1,9=11,15=111,16=1/1,2,10;
 10/6=1,13=1/2;
 6/7=2,8=2,9=2,10=2,28=1/1;
 7/10=1,18=20,25=1/1,2,3,16;
 1/10=4,18=20,19=15,26=3/3(2);
 2/9=110/2;
 99//99;
 2/9=110/2;
 3/5=1,6=6,7=1,11=2,25=1,30=1,71=1,74=-44/1,2,3;
 4/5=5,16=3,69=1/1;
 5/5=2,8=3,13=1,38=5/2,8;
 7//1,2,3,16;
 1/18=20,19=15,26=3/3(-5);
 2/9=110/2;
 6/7=2,8=2,9=2,10=2,19=2,28=1/1;
 99/9=1/99;
 ----------------------------------
 HEPOQLABXQGDTL-UHFFFAOYSA-N_conf_0
 ----------------------------------
 Symbolic Z-matrix:
 Charge =  0 Multiplicity = 1
 F                    -0.46334   2.78706  -0.77627 
 S                     0.22204   2.35821   0.59738 
 C                     0.92371   0.75838   0.30065 
 N                     2.27652   0.70316   0.42645 
 C                     2.88971  -0.46815   0.19767 
 N                     2.32221  -1.62081  -0.15561 
 C                     0.98576  -1.55029  -0.27179 
 C                     0.24633  -0.39561  -0.05519 
 N                    -1.05068  -0.78555  -0.27288 
 C                    -2.25722  -0.00242  -0.16409 
 C                    -1.03495  -2.11371  -0.60973 
 N                     0.18418  -2.59838  -0.62104 
 O                    -0.87438   2.1914    1.53321 
 O                     1.2678    3.33753   0.8147 
 H                     3.96998  -0.47746   0.31033 
 H                    -2.4498    0.18991   0.89327 
 H                    -3.09449  -0.56187  -0.59063 
 H                    -2.1301    0.9257   -0.72375 
 H                    -1.93328  -2.6771   -0.83268 
 

 GradGradGradGradGradGradGradGradGradGradGradGradGradGradGradGradGradGrad
 Berny optimization.
 Initialization pass.
                           ----------------------------
                           !    Initial Parameters    !
                           ! (Angstroms and Degrees)  !
 --------------------------                            --------------------------
 ! Name  Definition              Value          Derivative Info.                !
 --------------------------------------------------------------------------------
 ! R1    R(1,2)                  1.5939         calculate D2E/DX2 analytically  !
 ! R2    R(2,3)                  1.772          calculate D2E/DX2 analytically  !
 ! R3    R(2,13)                 1.4511         calculate D2E/DX2 analytically  !
 ! R4    R(2,14)                 1.4491         calculate D2E/DX2 analytically  !
 ! R5    R(3,4)                  1.3598         calculate D2E/DX2 analytically  !
 ! R6    R(3,8)                  1.3846         calculate D2E/DX2 analytically  !
 ! R7    R(4,5)                  1.3418         calculate D2E/DX2 analytically  !
 ! R8    R(5,6)                  1.3325         calculate D2E/DX2 analytically  !
 ! R9    R(5,15)                 1.0862         calculate D2E/DX2 analytically  !
 ! R10   R(6,7)                  1.3433         calculate D2E/DX2 analytically  !
 ! R11   R(7,8)                  1.3882         calculate D2E/DX2 analytically  !
 ! R12   R(7,12)                 1.3649         calculate D2E/DX2 analytically  !
 ! R13   R(8,9)                  1.3717         calculate D2E/DX2 analytically  !
 ! R14   R(9,10)                 1.4425         calculate D2E/DX2 analytically  !
 ! R15   R(9,11)                 1.3703         calculate D2E/DX2 analytically  !
 ! R16   R(10,16)                1.0918         calculate D2E/DX2 analytically  !
 ! R17   R(10,17)                1.0936         calculate D2E/DX2 analytically  !
 ! R18   R(10,18)                1.0912         calculate D2E/DX2 analytically  !
 ! R19   R(11,12)                1.312          calculate D2E/DX2 analytically  !
 ! R20   R(11,19)                1.0836         calculate D2E/DX2 analytically  !
 ! A1    A(1,2,3)              105.597          calculate D2E/DX2 analytically  !
 ! A2    A(1,2,13)             105.1774         calculate D2E/DX2 analytically  !
 ! A3    A(1,2,14)             104.9353         calculate D2E/DX2 analytically  !
 ! A4    A(3,2,13)             107.6618         calculate D2E/DX2 analytically  !
 ! A5    A(3,2,14)             110.4575         calculate D2E/DX2 analytically  !
 ! A6    A(13,2,14)            121.7519         calculate D2E/DX2 analytically  !
 ! A7    A(2,3,4)              114.5275         calculate D2E/DX2 analytically  !
 ! A8    A(2,3,8)              126.9981         calculate D2E/DX2 analytically  !
 ! A9    A(4,3,8)              118.4666         calculate D2E/DX2 analytically  !
 ! A10   A(3,4,5)              118.3169         calculate D2E/DX2 analytically  !
 ! A11   A(4,5,6)              127.2815         calculate D2E/DX2 analytically  !
 ! A12   A(4,5,15)             116.38           calculate D2E/DX2 analytically  !
 ! A13   A(6,5,15)             116.3383         calculate D2E/DX2 analytically  !
 ! A14   A(5,6,7)              113.6549         calculate D2E/DX2 analytically  !
 ! A15   A(6,7,8)              124.0638         calculate D2E/DX2 analytically  !
 ! A16   A(6,7,12)             124.4768         calculate D2E/DX2 analytically  !
 ! A17   A(8,7,12)             111.4589         calculate D2E/DX2 analytically  !
 ! A18   A(3,8,7)              118.2141         calculate D2E/DX2 analytically  !
 ! A19   A(3,8,9)              137.7547         calculate D2E/DX2 analytically  !
 ! A20   A(7,8,9)              104.0301         calculate D2E/DX2 analytically  !
 ! A21   A(8,9,10)             128.6489         calculate D2E/DX2 analytically  !
 ! A22   A(8,9,11)             107.679          calculate D2E/DX2 analytically  !
 ! A23   A(10,9,11)            123.665          calculate D2E/DX2 analytically  !
 ! A24   A(9,10,16)            108.4334         calculate D2E/DX2 analytically  !
 ! A25   A(9,10,17)            109.465          calculate D2E/DX2 analytically  !
 ! A26   A(9,10,18)            109.0037         calculate D2E/DX2 analytically  !
 ! A27   A(16,10,17)           109.4386         calculate D2E/DX2 analytically  !
 ! A28   A(16,10,18)           111.5553         calculate D2E/DX2 analytically  !
 ! A29   A(17,10,18)           108.9199         calculate D2E/DX2 analytically  !
 ! A30   A(9,11,12)            111.7679         calculate D2E/DX2 analytically  !
 ! A31   A(9,11,19)            123.0257         calculate D2E/DX2 analytically  !
 ! A32   A(12,11,19)           125.2061         calculate D2E/DX2 analytically  !
 ! A33   A(7,12,11)            105.0598         calculate D2E/DX2 analytically  !
 ! D1    D(1,2,3,4)            117.6645         calculate D2E/DX2 analytically  !
 ! D2    D(1,2,3,8)            -61.3            calculate D2E/DX2 analytically  !
 ! D3    D(13,2,3,4)          -130.3639         calculate D2E/DX2 analytically  !
 ! D4    D(13,2,3,8)            50.6716         calculate D2E/DX2 analytically  !
 ! D5    D(14,2,3,4)             4.727          calculate D2E/DX2 analytically  !
 ! D6    D(14,2,3,8)          -174.2375         calculate D2E/DX2 analytically  !
 ! D7    D(2,3,4,5)           -178.9784         calculate D2E/DX2 analytically  !
 ! D8    D(8,3,4,5)              0.0809         calculate D2E/DX2 analytically  !
 ! D9    D(2,3,8,7)            178.6258         calculate D2E/DX2 analytically  !
 ! D10   D(2,3,8,9)             -1.8323         calculate D2E/DX2 analytically  !
 ! D11   D(4,3,8,7)             -0.3026         calculate D2E/DX2 analytically  !
 ! D12   D(4,3,8,9)            179.2393         calculate D2E/DX2 analytically  !
 ! D13   D(3,4,5,6)              0.3824         calculate D2E/DX2 analytically  !
 ! D14   D(3,4,5,15)          -179.7987         calculate D2E/DX2 analytically  !
 ! D15   D(4,5,6,7)             -0.5498         calculate D2E/DX2 analytically  !
 ! D16   D(15,5,6,7)           179.6312         calculate D2E/DX2 analytically  !
 ! D17   D(5,6,7,8)              0.2806         calculate D2E/DX2 analytically  !
 ! D18   D(5,6,7,12)          -179.9666         calculate D2E/DX2 analytically  !
 ! D19   D(6,7,8,3)              0.1176         calculate D2E/DX2 analytically  !
 ! D20   D(6,7,8,9)           -179.5649         calculate D2E/DX2 analytically  !
 ! D21   D(12,7,8,3)          -179.6634         calculate D2E/DX2 analytically  !
 ! D22   D(12,7,8,9)             0.6541         calculate D2E/DX2 analytically  !
 ! D23   D(6,7,12,11)          179.5846         calculate D2E/DX2 analytically  !
 ! D24   D(8,7,12,11)           -0.6355         calculate D2E/DX2 analytically  !
 ! D25   D(3,8,9,10)            -0.9494         calculate D2E/DX2 analytically  !
 ! D26   D(3,8,9,11)          -179.9947         calculate D2E/DX2 analytically  !
 ! D27   D(7,8,9,10)           178.6345         calculate D2E/DX2 analytically  !
 ! D28   D(7,8,9,11)            -0.4109         calculate D2E/DX2 analytically  !
 ! D29   D(8,9,10,16)          -71.551          calculate D2E/DX2 analytically  !
 ! D30   D(8,9,10,17)          169.1176         calculate D2E/DX2 analytically  !
 ! D31   D(8,9,10,18)           50.0758         calculate D2E/DX2 analytically  !
 ! D32   D(11,9,10,16)         107.3562         calculate D2E/DX2 analytically  !
 ! D33   D(11,9,10,17)         -11.9752         calculate D2E/DX2 analytically  !
 ! D34   D(11,9,10,18)        -131.0171         calculate D2E/DX2 analytically  !
 ! D35   D(8,9,11,12)            0.0395         calculate D2E/DX2 analytically  !
 ! D36   D(8,9,11,19)          179.8459         calculate D2E/DX2 analytically  !
 ! D37   D(10,9,11,12)        -179.0648         calculate D2E/DX2 analytically  !
 ! D38   D(10,9,11,19)           0.7417         calculate D2E/DX2 analytically  !
 ! D39   D(9,11,12,7)            0.3589         calculate D2E/DX2 analytically  !
 ! D40   D(19,11,12,7)        -179.4425         calculate D2E/DX2 analytically  !
 --------------------------------------------------------------------------------
 Trust Radius=3.00D-01 FncErr=1.00D-07 GrdErr=1.00D-06 EigMax=2.50D+02 EigMin=1.00D-04
 Number of steps in this run=    103 maximum allowed number of steps=    114.
 GradGradGradGradGradGradGradGradGradGradGradGradGradGradGradGradGradGrad

                          Input orientation:                          
 ---------------------------------------------------------------------
 Center     Atomic      Atomic             Coordinates (Angstroms)
 Number     Number       Type             X           Y           Z
 ---------------------------------------------------------------------
      1          9           0       -0.463344    2.787058   -0.776266
      2         16           0        0.222044    2.358213    0.597382
      3          6           0        0.923709    0.758381    0.300649
      4          7           0        2.276523    0.703157    0.426449
      5          6           0        2.889714   -0.468148    0.197665
      6          7           0        2.322214   -1.620815   -0.155612
      7          6           0        0.985759   -1.550287   -0.271795
      8          6           0        0.246326   -0.395607   -0.055186
      9          7           0       -1.050681   -0.785550   -0.272879
     10          6           0       -2.257218   -0.002423   -0.164086
     11          6           0       -1.034950   -2.113707   -0.609727
     12          7           0        0.184180   -2.598384   -0.621040
     13          8           0       -0.874383    2.191395    1.533206
     14          8           0        1.267799    3.337532    0.814698
     15          1           0        3.969982   -0.477460    0.310334
     16          1           0       -2.449799    0.189908    0.893266
     17          1           0       -3.094492   -0.561867   -0.590630
     18          1           0       -2.130101    0.925701   -0.723747
     19          1           0       -1.933283   -2.677100   -0.832681
 ---------------------------------------------------------------------
                    Distance matrix (angstroms):
                    1          2          3          4          5
     1  F    0.000000
     2  S    1.593917   0.000000
     3  C    2.683131   1.771962   0.000000
     4  N    3.646373   2.643731   1.359773   0.000000
     5  C    4.773668   3.906988   2.319516   1.341753   0.000000
     6  N    5.251085   4.561839   2.797242   2.396190   1.332479
     7  C    4.600756   4.076163   2.379388   2.689168   2.239746
     8  C    3.339602   2.830187   1.384613   2.358168   2.656444
     9  N    3.655392   3.501490   2.571162   3.711549   3.981064
    10  C    3.372529   3.507018   3.303497   4.626163   5.180605
    11  C    4.936797   4.799501   3.593608   4.469255   4.331598
    12  N    5.426451   5.104296   3.558691   4.046641   3.539506
    13  O    2.420212   1.451119   2.608805   3.656224   4.798465
    14  O    2.414755   1.449101   2.652294   2.847489   4.182647
    15  H    5.611788   4.708554   3.287427   2.067642   1.086168
    16  H    3.671311   3.453670   3.472018   4.776972   5.424693
    17  H    4.262945   4.575767   4.322426   5.610930   6.036631
    18  H    2.499097   3.054515   3.225390   4.559695   5.290592
    19  H    5.658704   5.660821   4.609704   5.543827   5.403923
                    6          7          8          9         10
     6  N    0.000000
     7  C    1.343348   0.000000
     8  C    2.412578   1.388153   0.000000
     9  N    3.476757   2.175296   1.371741   0.000000
    10  C    4.857001   3.595050   2.536569   1.442517   0.000000
    11  C    3.423407   2.124831   2.213832   1.370297   2.479930
    12  N    2.396551   1.364921   2.275144   2.220915   3.592804
    13  O    5.253883   4.551741   3.235978   3.486435   3.099334
    14  O    5.161249   5.015056   3.966916   4.853656   4.953691
    15  H    2.059006   3.224193   3.742449   5.063805   6.263286
    16  H    5.210659   4.023518   2.917443   2.066142   1.091820
    17  H    5.536363   4.210354   3.387537   2.080423   1.093593
    18  H    5.160488   4.005417   2.800042   2.072875   1.091234
    19  H    4.436600   3.178853   3.249678   2.161094   2.775942
                   11         12         13         14         15
    11  C    0.000000
    12  N    1.311990   0.000000
    13  O    4.811637   5.357548   0.000000
    14  O    6.086677   6.202473   2.533540   0.000000
    15  H    5.345387   4.438252   5.664457   4.702163   0.000000
    16  H    3.093126   4.123777   2.626292   4.871779   6.480646
    17  H    2.578814   3.859795   4.125532   6.017461   7.122195
    18  H    3.232701   4.217300   2.876221   4.441786   6.344226
    19  H    1.083569   2.129469   5.515518   7.009748   6.402612
                   16         17         18         19
    16  H    0.000000
    17  H    1.784024   0.000000
    18  H    1.805084   1.777815   0.000000
    19  H    3.386062   2.425120   3.609817   0.000000
 Stoichiometry    C6H5FN4O2S
 Framework group  C1[X(C6H5FN4O2S)]
 Deg. of freedom    51
 Full point group                 C1      NOp   1
 Largest Abelian subgroup         C1      NOp   1
 Largest concise Abelian subgroup C1      NOp   1
                         Standard orientation:                         
 ---------------------------------------------------------------------
 Center     Atomic      Atomic             Coordinates (Angstroms)
 Number     Number       Type             X           Y           Z
 ---------------------------------------------------------------------
      1          9           0        2.119205   -0.808073    1.267144
      2         16           0        1.948875    0.006545   -0.092253
      3          6           0        0.294524    0.640695   -0.063572
      4          7           0        0.210087    1.997841   -0.066332
      5          6           0       -1.007569    2.559857   -0.024463
      6          7           0       -2.183425    1.935274    0.028065
      7          6           0       -2.082745    0.595705    0.026186
      8          6           0       -0.878608   -0.093451   -0.019472
      9          7           0       -1.250640   -1.413764   -0.013161
     10          6           0       -0.412580   -2.586217   -0.075324
     11          6           0       -2.618959   -1.460279    0.043872
     12          7           0       -3.145807   -0.259084    0.073564
     13          8           0        2.019990   -0.990563   -1.144139
     14          8           0        2.907902    1.089108   -0.001596
     15          1           0       -1.038488    3.645562   -0.031424
     16          1           0       -0.002775   -2.664554   -1.084281
     17          1           0       -1.011641   -3.474418    0.144154
     18          1           0        0.377253   -2.498489    0.672514
     19          1           0       -3.178225   -2.388252    0.058344
 ---------------------------------------------------------------------
 Rotational constants (GHZ):           1.0613515           0.5875848           0.4112350
 Standard basis: 6-31G(d) (6D, 7F)
 There are   224 symmetry adapted cartesian basis functions of A   symmetry.
 There are   224 symmetry adapted basis functions of A   symmetry.
   224 basis functions,   436 primitive gaussians,   224 cartesian basis functions
    55 alpha electrons       55 beta electrons
       nuclear repulsion energy      1069.6256023549 Hartrees.
 NAtoms=   19 NActive=   19 NUniq=   19 SFac= 1.00D+00 NAtFMM=   60 NAOKFM=F Big=F
 Integral buffers will be    131072 words long.
 Raffenetti 2 integral format.
 Two-electron integral symmetry is turned on.
 R6APFD:  NTU= -4 IXU= 1 FactS= 1.050
 Nuclear repulsion after empirical dispersion term =     1069.6067261774 Hartrees.
 One-electron integrals computed using PRISM.
 NBasis=   224 RedAO= T EigKep=  6.88D-04  NBF=   224
 NBsUse=   224 1.00D-06 EigRej= -1.00D+00 NBFU=   224
 ExpMin= 1.17D-01 ExpMax= 2.19D+04 ExpMxC= 3.30D+03 IAcc=3 IRadAn=         5 AccDes= 0.00D+00
 Harris functional with IExCor= 3731 and IRadAn=       5 diagonalized for initial guess.
 HarFok:  IExCor= 3731 AccDes= 0.00D+00 IRadAn=         5 IDoV= 1 UseB2=F ITyADJ=14
 ICtDFT=  3500011 ScaDFX=  1.000000  1.000000  1.000000  1.000000
 FoFCou: FMM=F IPFlag=           0 FMFlag=      100000 FMFlg1=           0
         NFxFlg=           0 DoJE=T BraDBF=F KetDBF=T FulRan=T
         wScrn=  0.000000 ICntrl=       500 IOpCl=  0 I1Cent=   200000004 NGrid=           0
         NMat0=    1 NMatS0=      1 NMatT0=    0 NMatD0=    1 NMtDS0=    0 NMtDT0=    0
 Petite list used in FoFCou.
 Keep R1 ints in memory in canonical form, NReq=323229189.
 Requested convergence on RMS density matrix=1.00D-08 within  32 cycles.
 Requested convergence on MAX density matrix=1.00D-06.
 Requested convergence on             energy=1.00D-06.
 No special actions if energy rises.
 Integral accuracy reduced to 1.0D-05 until final iterations.
 Initial convergence to 1.0D-05 achieved.  Increase integral accuracy.
 SCF Done:  E(RAPFD) =  -1098.41797755     A.U. after   16 cycles
            NFock= 16  Conv=0.41D-08     -V/T= 2.0066
 QCSCF skips out because SCF is already converged.
 DoSCS=F DFT=T ScalE2(SS,OS)=  1.000000  1.000000
 Range of M.O.s used for correlation:     1   224
 NBasis=   224 NAE=    55 NBE=    55 NFC=     0 NFV=     0
 NROrb=    224 NOA=    55 NOB=    55 NVA=   169 NVB=   169

 **** Warning!!: The largest alpha MO coefficient is  0.10671857D+02

 R6APFD:  NTU= -4 IXU= 1 FactS= 1.050
 Symmetrizing basis deriv contribution to polar:
 IMax=3 JMax=2 DiffMx= 0.00D+00
 G2DrvN: will do    20 centers at a time, making    1 passes.
 Calling FoFCou, ICntrl=  3107 FMM=F I1Cent=   0 AccDes= 0.00D+00.
 End of G2Drv F.D. properties file   721 does not exist.
 End of G2Drv F.D. properties file   722 does not exist.
 End of G2Drv F.D. properties file   788 does not exist.
          IDoAtm=1111111111111111111
          Differentiating once with respect to nuclear coordinates.
 Keep R1 ints in memory in canonical form, NReq=323237151.
          There are    60 degrees of freedom in the 1st order CPHF.  IDoFFX=6 NUNeed=     0.
     54 vectors produced by pass  0 Test12= 1.55D-14 1.67D-09 XBig12= 2.42D-01 1.33D-01.
 AX will form    54 AO Fock derivatives at one time.
     54 vectors produced by pass  1 Test12= 1.55D-14 1.67D-09 XBig12= 3.31D-02 4.83D-02.
     54 vectors produced by pass  2 Test12= 1.55D-14 1.67D-09 XBig12= 6.03D-04 3.03D-03.
     54 vectors produced by pass  3 Test12= 1.55D-14 1.67D-09 XBig12= 5.19D-06 3.11D-04.
     54 vectors produced by pass  4 Test12= 1.55D-14 1.67D-09 XBig12= 1.61D-08 1.37D-05.
     53 vectors produced by pass  5 Test12= 1.55D-14 1.67D-09 XBig12= 2.82D-11 5.53D-07.
     24 vectors produced by pass  6 Test12= 1.55D-14 1.67D-09 XBig12= 3.60D-14 1.71D-08.
 InvSVY:  IOpt=1 It=  1 EMax= 5.55D-16
 Solved reduced A of dimension   347 with    60 vectors.
 End of Minotr F.D. properties file   721 does not exist.
 End of Minotr F.D. properties file   722 does not exist.
 End of Minotr F.D. properties file   788 does not exist.

 **********************************************************************

            Population analysis using the SCF density.

 **********************************************************************

 Orbital symmetries:
       Occupied  (A) (A) (A) (A) (A) (A) (A) (A) (A) (A) (A) (A)
                 (A) (A) (A) (A) (A) (A) (A) (A) (A) (A) (A) (A)
                 (A) (A) (A) (A) (A) (A) (A) (A) (A) (A) (A) (A)
                 (A) (A) (A) (A) (A) (A) (A) (A) (A) (A) (A) (A)
                 (A) (A) (A) (A) (A) (A) (A)
       Virtual   (A) (A) (A) (A) (A) (A) (A) (A) (A) (A) (A) (A)
                 (A) (A) (A) (A) (A) (A) (A) (A) (A) (A) (A) (A)
                 (A) (A) (A) (A) (A) (A) (A) (A) (A) (A) (A) (A)
                 (A) (A) (A) (A) (A) (A) (A) (A) (A) (A) (A) (A)
                 (A) (A) (A) (A) (A) (A) (A) (A) (A) (A) (A) (A)
                 (A) (A) (A) (A) (A) (A) (A) (A) (A) (A) (A) (A)
                 (A) (A) (A) (A) (A) (A) (A) (A) (A) (A) (A) (A)
                 (A) (A) (A) (A) (A) (A) (A) (A) (A) (A) (A) (A)
                 (A) (A) (A) (A) (A) (A) (A) (A) (A) (A) (A) (A)
                 (A) (A) (A) (A) (A) (A) (A) (A) (A) (A) (A) (A)
                 (A) (A) (A) (A) (A) (A) (A) (A) (A) (A) (A) (A)
                 (A) (A) (A) (A) (A) (A) (A) (A) (A) (A) (A) (A)
                 (A) (A) (A) (A) (A) (A) (A) (A) (A) (A) (A) (A)
                 (A) (A) (A) (A) (A) (A) (A) (A) (A) (A) (A) (A)
                 (A)
 The electronic state is 1-A.
 Alpha  occ. eigenvalues --  -89.25279 -24.81323 -19.22934 -19.22593 -14.47987
 Alpha  occ. eigenvalues --  -14.41716 -14.40469 -14.38772 -10.33602 -10.32225
 Alpha  occ. eigenvalues --  -10.30750 -10.30607 -10.30396 -10.28371  -8.23133
 Alpha  occ. eigenvalues --   -6.18084  -6.17696  -6.17646  -1.30582  -1.14798
 Alpha  occ. eigenvalues --   -1.10112  -1.06444  -1.03119  -0.96766  -0.92400
 Alpha  occ. eigenvalues --   -0.85274  -0.78762  -0.75869  -0.70342  -0.68804
 Alpha  occ. eigenvalues --   -0.65358  -0.60680  -0.59193  -0.56480  -0.55310
 Alpha  occ. eigenvalues --   -0.53730  -0.53272  -0.51272  -0.51039  -0.47561
 Alpha  occ. eigenvalues --   -0.47466  -0.46916  -0.45703  -0.45408  -0.42821
 Alpha  occ. eigenvalues --   -0.40357  -0.38204  -0.36723  -0.35977  -0.34935
 Alpha  occ. eigenvalues --   -0.34409  -0.31678  -0.30792  -0.29552  -0.29193
 Alpha virt. eigenvalues --   -0.10320  -0.03369  -0.00130   0.02426   0.04510
 Alpha virt. eigenvalues --    0.07644   0.09072   0.09683   0.11095   0.12429
 Alpha virt. eigenvalues --    0.13434   0.14005   0.15248   0.17079   0.20050
 Alpha virt. eigenvalues --    0.21373   0.24218   0.25662   0.27599   0.29990
 Alpha virt. eigenvalues --    0.31104   0.32803   0.34458   0.35810   0.37562
 Alpha virt. eigenvalues --    0.40569   0.43630   0.45530   0.46658   0.48276
 Alpha virt. eigenvalues --    0.50691   0.54699   0.55605   0.56932   0.57651
 Alpha virt. eigenvalues --    0.58152   0.60414   0.61112   0.62702   0.65497
 Alpha virt. eigenvalues --    0.66040   0.66732   0.68634   0.71652   0.71791
 Alpha virt. eigenvalues --    0.73911   0.75436   0.77732   0.79042   0.79271
 Alpha virt. eigenvalues --    0.80458   0.81475   0.82108   0.83105   0.84387
 Alpha virt. eigenvalues --    0.84656   0.85227   0.87732   0.89148   0.89763
 Alpha virt. eigenvalues --    0.91437   0.93399   0.94298   0.94857   0.96796
 Alpha virt. eigenvalues --    1.01555   1.02460   1.04577   1.05935   1.08644
 Alpha virt. eigenvalues --    1.10575   1.10960   1.13986   1.17249   1.18848
 Alpha virt. eigenvalues --    1.19799   1.25027   1.25698   1.27180   1.28358
 Alpha virt. eigenvalues --    1.29063   1.30139   1.34904   1.36325   1.37267
 Alpha virt. eigenvalues --    1.40597   1.41591   1.43948   1.45420   1.46679
 Alpha virt. eigenvalues --    1.47033   1.48411   1.49861   1.56633   1.57972
 Alpha virt. eigenvalues --    1.60830   1.67842   1.69332   1.73318   1.75449
 Alpha virt. eigenvalues --    1.76547   1.77706   1.78374   1.79951   1.80561
 Alpha virt. eigenvalues --    1.81230   1.82519   1.83690   1.84323   1.86562
 Alpha virt. eigenvalues --    1.88527   1.92001   1.94036   1.95805   1.97540
 Alpha virt. eigenvalues --    2.00456   2.02222   2.06052   2.08890   2.11720
 Alpha virt. eigenvalues --    2.13326   2.16215   2.16855   2.17855   2.19048
 Alpha virt. eigenvalues --    2.19784   2.24163   2.24398   2.24654   2.27440
 Alpha virt. eigenvalues --    2.30248   2.30509   2.30723   2.40741   2.43577
 Alpha virt. eigenvalues --    2.44354   2.47610   2.52550   2.57587   2.59739
 Alpha virt. eigenvalues --    2.60304   2.62144   2.65051   2.69994   2.71451
 Alpha virt. eigenvalues --    2.72229   2.78792   2.80272   2.84965   2.89231
 Alpha virt. eigenvalues --    2.94008   2.98317   3.11353   3.25569   3.40202
 Alpha virt. eigenvalues --    3.75761   3.86751   3.96428   4.00477   4.03097
 Alpha virt. eigenvalues --    4.04670   4.16097   4.22476   4.27937   4.31188
 Alpha virt. eigenvalues --    4.35143   4.43089   4.67350   4.76618
          Condensed to atoms (all electrons):
               1          2          3          4          5          6
     1  F    9.189632   0.198147  -0.030223   0.000113  -0.000028   0.000000
     2  S    0.198147  13.480167   0.192761  -0.034017   0.001127  -0.000252
     3  C   -0.030223   0.192761   5.617084   0.383159  -0.076045  -0.037452
     4  N    0.000113  -0.034017   0.383159   6.796211   0.423302  -0.041092
     5  C   -0.000028   0.001127  -0.076045   0.423302   4.751411   0.424666
     6  N    0.000000  -0.000252  -0.037452  -0.041092   0.424666   6.884178
     7  C    0.000018   0.000545  -0.060797  -0.044885  -0.060494   0.419516
     8  C   -0.001776  -0.031768   0.220619  -0.022042  -0.017901  -0.085631
     9  N   -0.000154  -0.002411  -0.098349   0.004094   0.001142   0.007094
    10  C   -0.003942   0.002247  -0.000891   0.000031  -0.000033  -0.000044
    11  C   -0.000003  -0.000055   0.005723   0.000006  -0.000355   0.003891
    12  N    0.000000  -0.000076   0.011022   0.000147   0.003117  -0.067831
    13  O   -0.035218   0.433664  -0.051566   0.000422  -0.000078   0.000001
    14  O   -0.036240   0.476158  -0.043284  -0.000900   0.000118   0.000001
    15  H    0.000000  -0.000144   0.005622  -0.062354   0.403131  -0.063244
    16  H   -0.000024  -0.000218   0.001379  -0.000001  -0.000002  -0.000001
    17  H    0.000015   0.000120   0.000010   0.000001  -0.000000   0.000003
    18  H    0.009836   0.004079   0.000168  -0.000003  -0.000001  -0.000002
    19  H    0.000000  -0.000003  -0.000087   0.000002   0.000005  -0.000060
               7          8          9         10         11         12
     1  F    0.000018  -0.001776  -0.000154  -0.003942  -0.000003   0.000000
     2  S    0.000545  -0.031768  -0.002411   0.002247  -0.000055  -0.000076
     3  C   -0.060797   0.220619  -0.098349  -0.000891   0.005723   0.011022
     4  N   -0.044885  -0.022042   0.004094   0.000031   0.000006   0.000147
     5  C   -0.060494  -0.017901   0.001142  -0.000033  -0.000355   0.003117
     6  N    0.419516  -0.085631   0.007094  -0.000044   0.003891  -0.067831
     7  C    4.706141   0.347372  -0.037749   0.008652  -0.099571   0.418042
     8  C    0.347372   5.145867   0.264841  -0.040461  -0.076824  -0.120321
     9  N   -0.037749   0.264841   7.075167   0.239428   0.354464  -0.075148
    10  C    0.008652  -0.040461   0.239428   5.108438  -0.036481   0.004608
    11  C   -0.099571  -0.076824   0.354464  -0.036481   4.729081   0.500882
    12  N    0.418042  -0.120321  -0.075148   0.004608   0.500882   6.830684
    13  O    0.000119   0.001338  -0.001570   0.001950  -0.000015   0.000001
    14  O   -0.000043   0.003054   0.000006  -0.000009   0.000000   0.000000
    15  H    0.004511   0.000415   0.000020  -0.000000   0.000003  -0.000069
    16  H   -0.000176  -0.001307  -0.040609   0.380895   0.000299  -0.000087
    17  H   -0.000023   0.003512  -0.032234   0.372621  -0.002273   0.000338
    18  H   -0.000042  -0.002149  -0.036854   0.373212   0.001621  -0.000170
    19  H    0.006276   0.002324  -0.049874   0.000453   0.383356  -0.033796
              13         14         15         16         17         18
     1  F   -0.035218  -0.036240   0.000000  -0.000024   0.000015   0.009836
     2  S    0.433664   0.476158  -0.000144  -0.000218   0.000120   0.004079
     3  C   -0.051566  -0.043284   0.005622   0.001379   0.000010   0.000168
     4  N    0.000422  -0.000900  -0.062354  -0.000001   0.000001  -0.000003
     5  C   -0.000078   0.000118   0.403131  -0.000002  -0.000000  -0.000001
     6  N    0.000001   0.000001  -0.063244  -0.000001   0.000003  -0.000002
     7  C    0.000119  -0.000043   0.004511  -0.000176  -0.000023  -0.000042
     8  C    0.001338   0.003054   0.000415  -0.001307   0.003512  -0.002149
     9  N   -0.001570   0.000006   0.000020  -0.040609  -0.032234  -0.036854
    10  C    0.001950  -0.000009  -0.000000   0.380895   0.372621   0.373212
    11  C   -0.000015   0.000000   0.000003   0.000299  -0.002273   0.001621
    12  N    0.000001   0.000000  -0.000069  -0.000087   0.000338  -0.000170
    13  O    8.191506  -0.040686   0.000000   0.002940   0.000267  -0.002818
    14  O   -0.040686   8.083111   0.000007   0.000002   0.000000   0.000013
    15  H    0.000000   0.000007   0.501445   0.000000   0.000000  -0.000000
    16  H    0.002940   0.000002   0.000000   0.467137  -0.025150  -0.026144
    17  H    0.000267   0.000000   0.000000  -0.025150   0.499162  -0.023338
    18  H   -0.002818   0.000013  -0.000000  -0.026144  -0.023338   0.480425
    19  H   -0.000000   0.000000  -0.000000  -0.000017   0.002945  -0.000066
              19
     1  F    0.000000
     2  S   -0.000003
     3  C   -0.000087
     4  N    0.000002
     5  C    0.000005
     6  N   -0.000060
     7  C    0.006276
     8  C    0.002324
     9  N   -0.049874
    10  C    0.000453
    11  C    0.383356
    12  N   -0.033796
    13  O   -0.000000
    14  O    0.000000
    15  H   -0.000000
    16  H   -0.000017
    17  H    0.002945
    18  H   -0.000066
    19  H    0.463223
 Mulliken charges:
               1
     1  F   -0.290155
     2  S    1.279928
     3  C   -0.038854
     4  N   -0.402194
     5  C    0.146919
     6  N   -0.443742
     7  C    0.392587
     8  C    0.410838
     9  N   -0.571305
    10  C   -0.410674
    11  C    0.236250
    12  N   -0.471345
    13  O   -0.500258
    14  O   -0.441309
    15  H    0.210658
    16  H    0.241082
    17  H    0.204023
    18  H    0.222231
    19  H    0.225318
 Sum of Mulliken charges =  -0.00000
 Mulliken charges with hydrogens summed into heavy atoms:
               1
     1  F   -0.290155
     2  S    1.279928
     3  C   -0.038854
     4  N   -0.402194
     5  C    0.357578
     6  N   -0.443742
     7  C    0.392587
     8  C    0.410838
     9  N   -0.571305
    10  C    0.256663
    11  C    0.461567
    12  N   -0.471345
    13  O   -0.500258
    14  O   -0.441309
 APT charges:
               1
     1  F   -0.105391
     2  S    0.160076
     3  C   -0.148214
     4  N   -0.347834
     5  C   -0.407691
     6  N    0.033257
     7  C   -0.134594
     8  C   -0.083567
     9  N   -0.419349
    10  C   -1.252562
    11  C   -0.332556
    12  N   -0.088341
    13  O   -0.211929
    14  O    0.191480
    15  H    0.825915
    16  H    0.413145
    17  H    0.722217
    18  H    0.307992
    19  H    0.877944
 Sum of APT charges =  -0.00000
 APT charges with hydrogens summed into heavy atoms:
               1
     1  F   -0.105391
     2  S    0.160076
     3  C   -0.148214
     4  N   -0.347834
     5  C    0.418224
     6  N    0.033257
     7  C   -0.134594
     8  C   -0.083567
     9  N   -0.419349
    10  C    0.190792
    11  C    0.545388
    12  N   -0.088341
    13  O   -0.211929
    14  O    0.191480
 Electronic spatial extent (au):  <R**2>=           2578.2267
 Charge=             -0.0000 electrons
 Dipole moment (field-independent basis, Debye):
    X=             -2.0368    Y=             -4.4807    Z=              0.7199  Tot=              4.9743
 Quadrupole moment (field-independent basis, Debye-Ang):
   XX=           -104.2276   YY=            -73.7699   ZZ=            -85.2590
   XY=              6.1706   XZ=              2.4976   YZ=             -1.4349
 Traceless Quadrupole moment (field-independent basis, Debye-Ang):
   XX=            -16.4755   YY=             13.9823   ZZ=              2.4932
   XY=              6.1706   XZ=              2.4976   YZ=             -1.4349
 Octapole moment (field-independent basis, Debye-Ang**2):
  XXX=             54.1514  YYY=            -28.6092  ZZZ=              6.3595  XYY=            -16.7638
  XXY=            -41.0951  XXZ=              4.7008  XZZ=              8.7721  YZZ=             -1.0340
  YYZ=              2.8135  XYZ=             -2.3877
 Hexadecapole moment (field-independent basis, Debye-Ang**3):
 XXXX=          -2140.8115 YYYY=           -988.3244 ZZZZ=           -172.1265 XXXY=             68.3062
 XXXZ=             26.6841 YYYX=             25.1450 YYYZ=             -6.7514 ZZZX=             16.1402
 ZZZY=             -4.1649 XXYY=           -501.4206 XXZZ=           -353.7902 YYZZ=           -222.0419
 XXYZ=            -10.8861 YYXZ=              7.2446 ZZXY=              1.7060
 N-N= 1.069606726177D+03 E-N=-4.720785744619D+03  KE= 1.091243167135D+03
  Exact polarizability:   0.000   0.000   0.000   0.000   0.000   0.000
 Approx polarizability: 208.835  17.573 226.850  -4.364   4.691  91.377
 R6APFD:  NTU= -4 IXU= 1 FactS= 1.050
 Calling FoFJK, ICntrl=    100147 FMM=F ISym2X=0 I1Cent= 0 IOpClX= 0 NMat=1 NMatS=1 NMatT=0.
 ***** Axes restored to original set *****
 -------------------------------------------------------------------
 Center     Atomic                   Forces (Hartrees/Bohr)
 Number     Number              X              Y              Z
 -------------------------------------------------------------------
      1        9          -0.002241417   -0.009069781   -0.012952135
      2       16           0.009436886    0.030331676    0.035329466
      3        6           0.044926251   -0.011238785   -0.010408859
      4        7          -0.028002567    0.008920325   -0.003498742
      5        6          -0.008584028   -0.003293595    0.000487853
      6        7          -0.008254421    0.005056226   -0.000477423
      7        6           0.031878116   -0.030249152   -0.004416910
      8        6          -0.029499027    0.012437059    0.003225153
      9        7          -0.018962410    0.001476214   -0.005077445
     10        6          -0.001236298    0.003920411    0.003072380
     11        6           0.029953118    0.008535159    0.005114691
     12        7          -0.006858395   -0.012014779   -0.002996916
     13        8           0.001339676   -0.003538966   -0.005735584
     14        8          -0.009363758   -0.013194554   -0.003911053
     15        1          -0.000071705    0.002042895    0.000728738
     16        1          -0.002994238    0.005930696   -0.001651593
     17        1           0.002422697   -0.000498984   -0.000141487
     18        1          -0.003388970    0.001556327    0.002917653
     19        1          -0.000499510    0.002891609    0.000392213
 -------------------------------------------------------------------
 Cartesian Forces:  Max     0.044926251 RMS     0.013783793
 FormGI is forming the generalized inverse of G from B-inverse, IUseBI=4.

 GradGradGradGradGradGradGradGradGradGradGradGradGradGradGradGradGradGrad
 Berny optimization.
 Internal  Forces:  Max     0.033530138 RMS     0.007858570
 Search for a local minimum.
 Step number   1 out of a maximum of  103
 All quantities printed in internal units (Hartrees-Bohrs-Radians)
 Mixed Optimization -- RFO/linear search
 Second derivative matrix not updated -- analytic derivatives used.
 ITU=  0
     Eigenvalues ---    0.00177   0.00332   0.00651   0.01226   0.01424
     Eigenvalues ---    0.02368   0.02434   0.02795   0.03066   0.04258
     Eigenvalues ---    0.05339   0.05860   0.06265   0.06296   0.11434
     Eigenvalues ---    0.13361   0.13682   0.14277   0.14917   0.16194
     Eigenvalues ---    0.16632   0.17701   0.18934   0.19308   0.19343
     Eigenvalues ---    0.21048   0.22156   0.22641   0.24704   0.26166
     Eigenvalues ---    0.28330   0.31441   0.31686   0.34834   0.35105
     Eigenvalues ---    0.35456   0.35979   0.36876   0.37900   0.38248
     Eigenvalues ---    0.40042   0.40986   0.44190   0.45536   0.48911
     Eigenvalues ---    0.50961   0.54462   0.57961   0.61639   0.66555
     Eigenvalues ---    0.66957
 RFO step:  Lambda=-1.81109173D-02 EMin= 1.77121178D-03
 Linear search not attempted -- first point.
 Iteration  1 RMS(Cart)=  0.05163437 RMS(Int)=  0.00259172
 Iteration  2 RMS(Cart)=  0.00311332 RMS(Int)=  0.00030365
 Iteration  3 RMS(Cart)=  0.00001172 RMS(Int)=  0.00030357
 Iteration  4 RMS(Cart)=  0.00000000 RMS(Int)=  0.00030357
 Variable       Old X    -DE/DX   Delta X   Delta X   Delta X     New X
                                 (Linear)    (Quad)   (Total)
    R1        3.01207   0.00968   0.00000   0.03466   0.03466   3.04673
    R2        3.34852   0.00655   0.00000   0.04648   0.04648   3.39500
    R3        2.74222  -0.00430   0.00000  -0.00931  -0.00931   2.73290
    R4        2.73840  -0.01626   0.00000  -0.02669  -0.02669   2.71172
    R5        2.56960  -0.03353   0.00000  -0.08736  -0.08733   2.48227
    R6        2.61654   0.00455   0.00000   0.01449   0.01463   2.63117
    R7        2.53555   0.00012   0.00000   0.00427   0.00416   2.53970
    R8        2.51802   0.00018   0.00000  -0.00959  -0.00974   2.50828
    R9        2.05256  -0.00001   0.00000  -0.00004  -0.00004   2.05252
   R10        2.53856  -0.01201   0.00000  -0.02078  -0.02081   2.51775
   R11        2.62323   0.02833   0.00000   0.06299   0.06293   2.68616
   R12        2.57933  -0.00110   0.00000   0.00829   0.00823   2.58756
   R13        2.59222  -0.00261   0.00000  -0.00247  -0.00251   2.58970
   R14        2.72596   0.01059   0.00000   0.01641   0.01641   2.74238
   R15        2.58949   0.00251   0.00000  -0.00002   0.00012   2.58960
   R16        2.06324  -0.00003   0.00000  -0.00126  -0.00126   2.06198
   R17        2.06659  -0.00154   0.00000  -0.00374  -0.00374   2.06285
   R18        2.06213  -0.00057   0.00000  -0.00287  -0.00287   2.05926
   R19        2.47930   0.00008   0.00000  -0.01201  -0.01188   2.46742
   R20        2.04765  -0.00117   0.00000  -0.00021  -0.00021   2.04743
    A1        1.84302  -0.02979   0.00000  -0.14006  -0.14065   1.70236
    A2        1.83569   0.00702   0.00000   0.01107   0.01027   1.84597
    A3        1.83147   0.01143   0.00000   0.03516   0.03447   1.86594
    A4        1.87905  -0.00214   0.00000   0.02093   0.01990   1.89895
    A5        1.92785   0.00005   0.00000   0.01740   0.01639   1.94424
    A6        2.12497   0.00785   0.00000   0.02564   0.02441   2.14938
    A7        1.99888  -0.00068   0.00000   0.00768   0.00744   2.00633
    A8        2.21654  -0.00857   0.00000  -0.05463  -0.05485   2.16168
    A9        2.06763   0.00927   0.00000   0.04743   0.04746   2.11510
   A10        2.06502  -0.00158   0.00000  -0.01085  -0.01093   2.05409
   A11        2.22148   0.00715   0.00000   0.00441   0.00419   2.22567
   A12        2.03121  -0.00579   0.00000  -0.01346  -0.01335   2.01787
   A13        2.03049  -0.00136   0.00000   0.00905   0.00916   2.03964
   A14        1.98365  -0.00126   0.00000   0.01306   0.01280   1.99645
   A15        2.16532  -0.00637   0.00000  -0.01501  -0.01486   2.15046
   A16        2.17253   0.01075   0.00000   0.03347   0.03352   2.20605
   A17        1.94533  -0.00438   0.00000  -0.01844  -0.01865   1.92667
   A18        2.06322  -0.00721   0.00000  -0.03898  -0.03864   2.02459
   A19        2.40427   0.00063   0.00000   0.01676   0.01671   2.42098
   A20        1.81567   0.00658   0.00000   0.02222   0.02193   1.83759
   A21        2.24535   0.00303   0.00000   0.01747   0.01742   2.26277
   A22        1.87935  -0.01487   0.00000  -0.04260  -0.04250   1.83685
   A23        2.15836   0.01184   0.00000   0.02516   0.02511   2.18347
   A24        1.89252   0.00835   0.00000   0.03548   0.03546   1.92798
   A25        1.91053  -0.00477   0.00000  -0.02481  -0.02467   1.88585
   A26        1.90247   0.00504   0.00000   0.01810   0.01804   1.92052
   A27        1.91006  -0.00081   0.00000   0.00677   0.00694   1.91700
   A28        1.94701  -0.00689   0.00000  -0.03709  -0.03729   1.90972
   A29        1.90101  -0.00093   0.00000   0.00137   0.00148   1.90249
   A30        1.95072   0.02173   0.00000   0.06026   0.06049   2.01121
   A31        2.14720  -0.01364   0.00000  -0.05060  -0.05072   2.09648
   A32        2.18526  -0.00810   0.00000  -0.00964  -0.00976   2.17550
   A33        1.83364  -0.00906   0.00000  -0.02133  -0.02120   1.81244
    D1        2.05363   0.00176   0.00000   0.01678   0.01639   2.07002
    D2       -1.06989   0.00046   0.00000  -0.01548  -0.01521  -1.08510
    D3       -2.27528  -0.00478   0.00000  -0.02553  -0.02592  -2.30120
    D4        0.88439  -0.00608   0.00000  -0.05780  -0.05753   0.82686
    D5        0.08250   0.00404   0.00000   0.04117   0.04096   0.12346
    D6       -3.04102   0.00273   0.00000   0.00890   0.00936  -3.03166
    D7       -3.12376  -0.00181   0.00000  -0.03369  -0.03472   3.12470
    D8        0.00141  -0.00081   0.00000  -0.00548  -0.00517  -0.00376
    D9        3.11761   0.00179   0.00000   0.03999   0.03993  -3.12564
   D10       -0.03198   0.00183   0.00000   0.04027   0.04032   0.00834
   D11       -0.00528   0.00054   0.00000   0.00701   0.00689   0.00161
   D12        3.12832   0.00058   0.00000   0.00729   0.00727   3.13559
   D13        0.00667   0.00079   0.00000  -0.00008  -0.00053   0.00614
   D14       -3.13808   0.00043   0.00000   0.00174   0.00157  -3.13651
   D15       -0.00960  -0.00034   0.00000   0.00388   0.00401  -0.00559
   D16        3.13516   0.00003   0.00000   0.00209   0.00192   3.13708
   D17        0.00490  -0.00007   0.00000  -0.00221  -0.00196   0.00294
   D18       -3.14101   0.00022   0.00000   0.00342   0.00377  -3.13724
   D19        0.00205  -0.00013   0.00000  -0.00324  -0.00328  -0.00123
   D20       -3.13400  -0.00015   0.00000  -0.00350  -0.00361  -3.13761
   D21       -3.13572  -0.00042   0.00000  -0.00835  -0.00831   3.13915
   D22        0.01142  -0.00045   0.00000  -0.00861  -0.00865   0.00277
   D23        3.13434   0.00020   0.00000   0.00203   0.00176   3.13610
   D24       -0.01109   0.00045   0.00000   0.00704   0.00686  -0.00423
   D25       -0.01657   0.00053   0.00000   0.00923   0.00905  -0.00752
   D26       -3.14150   0.00045   0.00000   0.00703   0.00683  -3.13467
   D27        3.11776   0.00052   0.00000   0.00929   0.00922   3.12698
   D28       -0.00717   0.00044   0.00000   0.00709   0.00700  -0.00017
   D29       -1.24880   0.00096   0.00000   0.02640   0.02620  -1.22260
   D30        2.95166  -0.00024   0.00000   0.01159   0.01157   2.96323
   D31        0.87399   0.00071   0.00000   0.01380   0.01387   0.88786
   D32        1.87372   0.00081   0.00000   0.02834   0.02824   1.90196
   D33       -0.20901  -0.00039   0.00000   0.01353   0.01361  -0.19540
   D34       -2.28668   0.00056   0.00000   0.01574   0.01591  -2.27077
   D35        0.00069  -0.00024   0.00000  -0.00339  -0.00339  -0.00270
   D36        3.13890   0.00008   0.00000   0.00221   0.00216   3.14107
   D37       -3.12527  -0.00023   0.00000  -0.00541  -0.00543  -3.13070
   D38        0.01294   0.00009   0.00000   0.00019   0.00012   0.01307
   D39        0.00626  -0.00003   0.00000  -0.00194  -0.00194   0.00433
   D40       -3.13186  -0.00035   0.00000  -0.00759  -0.00769  -3.13955
         Item               Value     Threshold  Converged?
 Maximum Force            0.033530     0.000450     NO 
 RMS     Force            0.007859     0.000300     NO 
 Maximum Displacement     0.369989     0.001800     NO 
 RMS     Displacement     0.052975     0.001200     NO 
 Predicted change in Energy=-9.743645D-03
 GradGradGradGradGradGradGradGradGradGradGradGradGradGradGradGradGradGrad

                          Input orientation:                          
 ---------------------------------------------------------------------
 Center     Atomic      Atomic             Coordinates (Angstroms)
 Number     Number       Type             X           Y           Z
 ---------------------------------------------------------------------
      1          9           0       -0.431215    2.591268   -0.804907
      2         16           0        0.219380    2.338215    0.648392
      3          6           0        0.969071    0.743897    0.296639
      4          7           0        2.277022    0.708843    0.412716
      5          6           0        2.893357   -0.462830    0.181368
      6          7           0        2.334258   -1.615992   -0.164205
      7          6           0        1.007728   -1.571329   -0.280130
      8          6           0        0.246044   -0.391872   -0.058202
      9          7           0       -1.057433   -0.758494   -0.269305
     10          6           0       -2.269814    0.032655   -0.168276
     11          6           0       -1.009380   -2.088797   -0.594681
     12          7           0        0.186094   -2.613362   -0.617781
     13          8           0       -0.894964    2.140792    1.548796
     14          8           0        1.214825    3.353373    0.842586
     15          1           0        3.973868   -0.454819    0.291564
     16          1           0       -2.480692    0.276164    0.874244
     17          1           0       -3.091407   -0.552639   -0.585452
     18          1           0       -2.163523    0.953565   -0.741083
     19          1           0       -1.923218   -2.628636   -0.812283
 ---------------------------------------------------------------------
                    Distance matrix (angstroms):
                    1          2          3          4          5
     1  F    0.000000
     2  S    1.612261   0.000000
     3  C    2.566512   1.796557   0.000000
     4  N    3.515776   2.635202   1.313560   0.000000
     5  C    4.620934   3.900528   2.274281   1.343952   0.000000
     6  N    5.075370   4.557278   2.764994   2.396033   1.327327
     7  C    4.435444   4.094897   2.386300   2.700061   2.235475
     8  C    3.148869   2.820171   1.392355   2.357586   2.659078
     9  N    3.449627   3.473043   2.585380   3.706322   3.987389
    10  C    3.214381   3.489790   3.348489   4.633411   5.198662
    11  C    4.720327   4.759571   3.568315   4.431938   4.298533
    12  N    5.244451   5.111010   3.566568   4.058442   3.548620
    13  O    2.440883   1.446190   2.644587   3.660963   4.795840
    14  O    2.450405   1.434980   2.677278   2.882116   4.221147
    15  H    5.466777   4.693032   3.235081   2.061085   1.086145
    16  H    3.518467   3.404916   3.528918   4.799590   5.468692
    17  H    4.124189   4.565163   4.352765   5.604258   6.034358
    18  H    2.384751   3.086442   3.306656   4.594517   5.331897
    19  H    5.428953   5.603026   4.579194   5.502854   5.373775
                    6          7          8          9         10
     6  N    0.000000
     7  C    1.332335   0.000000
     8  C    2.422880   1.421455   0.000000
     9  N    3.499989   2.219394   1.370412   0.000000
    10  C    4.890351   3.650693   2.553797   1.451203   0.000000
    11  C    3.404229   2.106049   2.177947   1.370360   2.504211
    12  N    2.411449   1.369279   2.291668   2.260162   3.637986
    13  O    5.241725   4.554674   3.209163   3.426039   3.046767
    14  O    5.192432   5.055301   3.972004   4.827722   4.918507
    15  H    2.060186   3.220468   3.744726   5.071566   6.279541
    16  H    5.276588   4.112771   2.958178   2.098544   1.091153
    17  H    5.544909   4.234839   3.382664   2.068665   1.091614
    18  H    5.212049   4.079755   2.842981   2.092165   1.089716
    19  H    4.423976   3.160938   3.205846   2.131159   2.759953
                   11         12         13         14         15
    11  C    0.000000
    12  N    1.305703   0.000000
    13  O    4.743101   5.335234   0.000000
    14  O    6.052275   6.228394   2.533830   0.000000
    15  H    5.318653   4.453476   5.658918   4.734793   0.000000
    16  H    3.148895   4.205621   2.538974   4.809060   6.521901
    17  H    2.587412   3.871645   4.078474   5.986639   7.120171
    18  H    3.257214   4.273040   2.874421   4.436251   6.381024
    19  H    1.083456   2.118316   5.420281   6.954878   6.381190
                   16         17         18         19
    16  H    0.000000
    17  H    1.786226   0.000000
    18  H    1.780098   1.775905   0.000000
    19  H    3.404852   2.392881   3.590958   0.000000
 Stoichiometry    C6H5FN4O2S
 Framework group  C1[X(C6H5FN4O2S)]
 Deg. of freedom    51
 Full point group                 C1      NOp   1
 Largest Abelian subgroup         C1      NOp   1
 Largest concise Abelian subgroup C1      NOp   1
                         Standard orientation:                         
 ---------------------------------------------------------------------
 Center     Atomic      Atomic             Coordinates (Angstroms)
 Number     Number       Type             X           Y           Z
 ---------------------------------------------------------------------
      1          9           0        1.924010   -0.764078    1.296706
      2         16           0        1.956243    0.020987   -0.111137
      3          6           0        0.288162    0.685247   -0.048821
      4          7           0        0.213500    1.996682   -0.049784
      5          6           0       -1.009825    2.552594   -0.024402
      6          7           0       -2.180852    1.928573    0.008638
      7          6           0       -2.095856    0.598953    0.009853
      8          6           0       -0.859694   -0.102235   -0.017954
      9          7           0       -1.197450   -1.430358   -0.011912
     10          6           0       -0.343471   -2.603130   -0.048160
     11          6           0       -2.567279   -1.453638    0.018304
     12          7           0       -3.143662   -0.282165    0.035467
     13          8           0        2.012389   -1.002975   -1.130850
     14          8           0        2.938391    1.059847    0.012645
     15          1           0       -1.032375    3.638485   -0.031028
     16          1           0        0.128117   -2.701553   -1.027207
     17          1           0       -0.962796   -3.478931    0.154401
     18          1           0        0.426726   -2.528026    0.719067
     19          1           0       -3.094866   -2.399907    0.028449
 ---------------------------------------------------------------------
 Rotational constants (GHZ):           1.0593342           0.5995544           0.4173336
 Standard basis: 6-31G(d) (6D, 7F)
 There are   224 symmetry adapted cartesian basis functions of A   symmetry.
 There are   224 symmetry adapted basis functions of A   symmetry.
   224 basis functions,   436 primitive gaussians,   224 cartesian basis functions
    55 alpha electrons       55 beta electrons
       nuclear repulsion energy      1072.8090386656 Hartrees.
 NAtoms=   19 NActive=   19 NUniq=   19 SFac= 1.00D+00 NAtFMM=   60 NAOKFM=F Big=F
 Integral buffers will be    131072 words long.
 Raffenetti 2 integral format.
 Two-electron integral symmetry is turned on.
 R6APFD:  NTU= -4 IXU= 1 FactS= 1.050
 Nuclear repulsion after empirical dispersion term =     1072.7898474426 Hartrees.
 One-electron integrals computed using PRISM.
 NBasis=   224 RedAO= T EigKep=  7.12D-04  NBF=   224
 NBsUse=   224 1.00D-06 EigRej= -1.00D+00 NBFU=   224
 Initial guess from the checkpoint file:  "HEPOQLABXQGDTL-UHFFFAOYSA-N_conf_0_0.chk"
 B after Tr=     0.000000    0.000000    0.000000
         Rot=    0.999981    0.002308    0.005375   -0.001910 Ang=   0.71 deg.
 ExpMin= 1.17D-01 ExpMax= 2.19D+04 ExpMxC= 3.30D+03 IAcc=2 IRadAn=         4 AccDes= 0.00D+00
 Harris functional with IExCor= 3731 and IRadAn=       4 diagonalized for initial guess.
 HarFok:  IExCor= 3731 AccDes= 0.00D+00 IRadAn=         4 IDoV= 1 UseB2=F ITyADJ=14
 ICtDFT=  3500011 ScaDFX=  1.000000  1.000000  1.000000  1.000000
 FoFCou: FMM=F IPFlag=           0 FMFlag=      100000 FMFlg1=           0
         NFxFlg=           0 DoJE=T BraDBF=F KetDBF=T FulRan=T
         wScrn=  0.000000 ICntrl=       500 IOpCl=  0 I1Cent=   200000004 NGrid=           0
         NMat0=    1 NMatS0=      1 NMatT0=    0 NMatD0=    1 NMtDS0=    0 NMtDT0=    0
 Petite list used in FoFCou.
 Keep R1 ints in memory in canonical form, NReq=323229189.
 Requested convergence on RMS density matrix=1.00D-08 within  32 cycles.
 Requested convergence on MAX density matrix=1.00D-06.
 Requested convergence on             energy=1.00D-06.
 No special actions if energy rises.
 Integral accuracy reduced to 1.0D-05 until final iterations.
 Initial convergence to 1.0D-05 achieved.  Increase integral accuracy.
 SCF Done:  E(RAPFD) =  -1098.42748679     A.U. after   13 cycles
            NFock= 13  Conv=0.69D-08     -V/T= 2.0065
 QCSCF skips out because SCF is already converged.
 R6APFD:  NTU= -4 IXU= 1 FactS= 1.050
 Calling FoFJK, ICntrl=      2127 FMM=F ISym2X=0 I1Cent= 0 IOpClX= 0 NMat=1 NMatS=1 NMatT=0.
 ***** Axes restored to original set *****
 -------------------------------------------------------------------
 Center     Atomic                   Forces (Hartrees/Bohr)
 Number     Number              X              Y              Z
 -------------------------------------------------------------------
      1        9          -0.001355121    0.000651115   -0.002335802
      2       16           0.000748716   -0.000257597    0.004508896
      3        6          -0.002105044   -0.001197576   -0.002168825
      4        7           0.004404328    0.000168588    0.000072603
      5        6           0.000325706   -0.000830433   -0.000026506
      6        7          -0.000451706    0.000460367    0.000076106
      7        6           0.002949476   -0.003264712   -0.000623434
      8        6          -0.003156724    0.002389570    0.001759177
      9        7          -0.001568575    0.000161446   -0.000785295
     10        6          -0.000166545   -0.000284941    0.000170839
     11        6           0.001903697    0.000685993    0.000119683
     12        7          -0.000341681   -0.001215807   -0.000077803
     13        8          -0.001139123    0.000334901   -0.000463844
     14        8           0.000486387    0.001085038   -0.000183156
     15        1           0.000023664    0.000199483    0.000049042
     16        1          -0.000047809    0.000965167   -0.000230464
     17        1           0.000148881   -0.000231934    0.000136176
     18        1          -0.000484364    0.000021332    0.000089358
     19        1          -0.000174164    0.000159999   -0.000086753
 -------------------------------------------------------------------
 Cartesian Forces:  Max     0.004508896 RMS     0.001400895

 GradGradGradGradGradGradGradGradGradGradGradGradGradGradGradGradGradGrad
 Berny optimization.
 Using GEDIIS/GDIIS optimizer.
 FormGI is forming the generalized inverse of G from B-inverse, IUseBI=4.
 Internal  Forces:  Max     0.004440163 RMS     0.000876643
 Search for a local minimum.
 Step number   2 out of a maximum of  103
 All quantities printed in internal units (Hartrees-Bohrs-Radians)
 Mixed Optimization -- En-DIIS/RFO-DIIS
 Update second derivatives using D2CorX and points    1    2
 DE= -9.51D-03 DEPred=-9.74D-03 R= 9.76D-01
 TightC=F SS=  1.41D+00  RLast= 2.76D-01 DXNew= 5.0454D-01 8.2707D-01
 Trust test= 9.76D-01 RLast= 2.76D-01 DXMaxT set to 5.05D-01
 ITU=  1  0
 Use linear search instead of GDIIS.
     Eigenvalues ---    0.00177   0.00332   0.00650   0.01227   0.01425
     Eigenvalues ---    0.02368   0.02434   0.02794   0.03065   0.04253
     Eigenvalues ---    0.05335   0.05859   0.06264   0.06295   0.11438
     Eigenvalues ---    0.13363   0.13680   0.14265   0.14904   0.16210
     Eigenvalues ---    0.16678   0.17990   0.18924   0.19263   0.19309
     Eigenvalues ---    0.21002   0.22211   0.22626   0.24680   0.26163
     Eigenvalues ---    0.28187   0.30956   0.31855   0.34868   0.35138
     Eigenvalues ---    0.35457   0.36048   0.36878   0.37899   0.38169
     Eigenvalues ---    0.40121   0.40992   0.44284   0.45605   0.48341
     Eigenvalues ---    0.51834   0.54917   0.57861   0.61749   0.66805
     Eigenvalues ---    0.67012
 RFO step:  Lambda=-5.28549244D-04 EMin= 1.77151754D-03
 Quartic linear search produced a step of  0.03547.
 Iteration  1 RMS(Cart)=  0.04864776 RMS(Int)=  0.00230816
 Iteration  2 RMS(Cart)=  0.00246393 RMS(Int)=  0.00004006
 Iteration  3 RMS(Cart)=  0.00000576 RMS(Int)=  0.00003983
 Iteration  4 RMS(Cart)=  0.00000000 RMS(Int)=  0.00003983
 Variable       Old X    -DE/DX   Delta X   Delta X   Delta X     New X
                                 (Linear)    (Quad)   (Total)
    R1        3.04673   0.00275   0.00123   0.00736   0.00859   3.05532
    R2        3.39500   0.00243   0.00165   0.00574   0.00739   3.40239
    R3        2.73290   0.00054  -0.00033   0.00120   0.00087   2.73377
    R4        2.71172   0.00108  -0.00095   0.00233   0.00138   2.71310
    R5        2.48227   0.00444  -0.00310   0.01405   0.01096   2.49323
    R6        2.63117   0.00069   0.00052  -0.00178  -0.00124   2.62993
    R7        2.53970   0.00041   0.00015  -0.00102  -0.00089   2.53881
    R8        2.50828  -0.00002  -0.00035   0.00151   0.00114   2.50943
    R9        2.05252   0.00003  -0.00000   0.00014   0.00014   2.05266
   R10        2.51775  -0.00014  -0.00074  -0.00284  -0.00358   2.51416
   R11        2.68616   0.00400   0.00223   0.00894   0.01117   2.69733
   R12        2.58756   0.00008   0.00029   0.00078   0.00104   2.58860
   R13        2.58970   0.00061  -0.00009   0.00024   0.00018   2.58988
   R14        2.74238   0.00073   0.00058   0.00039   0.00098   2.74335
   R15        2.58960   0.00042   0.00000   0.00066   0.00069   2.59029
   R16        2.06198   0.00000  -0.00004  -0.00120  -0.00124   2.06074
   R17        2.06285  -0.00004  -0.00013  -0.00049  -0.00062   2.06223
   R18        2.05926  -0.00008  -0.00010   0.00277   0.00266   2.06193
   R19        2.46742   0.00029  -0.00042  -0.00046  -0.00089   2.46653
   R20        2.04743   0.00008  -0.00001   0.00044   0.00043   2.04786
    A1        1.70236   0.00031  -0.00499   0.00726   0.00225   1.70462
    A2        1.84597  -0.00114   0.00036  -0.00609  -0.00575   1.84022
    A3        1.86594  -0.00061   0.00122  -0.00250  -0.00131   1.86463
    A4        1.89895   0.00100   0.00071   0.00083   0.00149   1.90044
    A5        1.94424   0.00062   0.00058   0.00130   0.00184   1.94608
    A6        2.14938  -0.00027   0.00087   0.00023   0.00105   2.15043
    A7        2.00633   0.00049   0.00026   0.00136   0.00153   2.00786
    A8        2.16168  -0.00033  -0.00195  -0.00306  -0.00509   2.15659
    A9        2.11510  -0.00016   0.00168   0.00147   0.00312   2.11822
   A10        2.05409  -0.00006  -0.00039  -0.00306  -0.00343   2.05066
   A11        2.22567   0.00009   0.00015   0.00108   0.00121   2.22689
   A12        2.01787  -0.00025  -0.00047  -0.00143  -0.00190   2.01597
   A13        2.03964   0.00017   0.00032   0.00036   0.00069   2.04033
   A14        1.99645   0.00081   0.00045   0.00230   0.00273   1.99918
   A15        2.15046   0.00028  -0.00053   0.00054   0.00003   2.15049
   A16        2.20605   0.00020   0.00119   0.00086   0.00205   2.20810
   A17        1.92667  -0.00048  -0.00066  -0.00140  -0.00208   1.92459
   A18        2.02459  -0.00095  -0.00137  -0.00232  -0.00368   2.02091
   A19        2.42098   0.00095   0.00059   0.00261   0.00315   2.42413
   A20        1.83759   0.00000   0.00078  -0.00025   0.00054   1.83814
   A21        2.26277   0.00080   0.00062  -0.00023   0.00019   2.26296
   A22        1.83685  -0.00089  -0.00151  -0.00129  -0.00286   1.83399
   A23        2.18347   0.00009   0.00089   0.00193   0.00263   2.18610
   A24        1.92798   0.00082   0.00126   0.00184   0.00310   1.93108
   A25        1.88585  -0.00052  -0.00088  -0.00214  -0.00301   1.88284
   A26        1.92052   0.00053   0.00064   0.00108   0.00172   1.92224
   A27        1.91700   0.00004   0.00025   0.00189   0.00214   1.91915
   A28        1.90972  -0.00078  -0.00132  -0.00591  -0.00724   1.90248
   A29        1.90249  -0.00010   0.00005   0.00336   0.00342   1.90590
   A30        2.01121   0.00179   0.00215   0.00373   0.00592   2.01713
   A31        2.09648  -0.00111  -0.00180  -0.00322  -0.00504   2.09144
   A32        2.17550  -0.00068  -0.00035  -0.00051  -0.00088   2.17461
   A33        1.81244  -0.00043  -0.00075  -0.00076  -0.00152   1.81092
    D1        2.07002   0.00017   0.00058  -0.02945  -0.02890   2.04113
    D2       -1.08510  -0.00024  -0.00054  -0.04920  -0.04971  -1.13481
    D3       -2.30120  -0.00068  -0.00092  -0.03289  -0.03385  -2.33505
    D4        0.82686  -0.00109  -0.00204  -0.05264  -0.05466   0.77220
    D5        0.12346   0.00052   0.00145  -0.03049  -0.02906   0.09441
    D6       -3.03166   0.00011   0.00033  -0.05023  -0.04987  -3.08153
    D7        3.12470  -0.00049  -0.00123  -0.02342  -0.02475   3.09995
    D8       -0.00376  -0.00009  -0.00018  -0.00421  -0.00437  -0.00813
    D9       -3.12564   0.00058   0.00142   0.02773   0.02913  -3.09651
   D10        0.00834   0.00058   0.00143   0.03898   0.04040   0.04874
   D11        0.00161   0.00015   0.00024   0.00680   0.00703   0.00864
   D12        3.13559   0.00015   0.00026   0.01805   0.01830  -3.12929
   D13        0.00614  -0.00004  -0.00002  -0.00431  -0.00437   0.00177
   D14       -3.13651   0.00002   0.00006  -0.00173  -0.00169  -3.13820
   D15       -0.00559   0.00010   0.00014   0.00902   0.00918   0.00359
   D16        3.13708   0.00003   0.00007   0.00642   0.00647  -3.13963
   D17        0.00294  -0.00002  -0.00007  -0.00559  -0.00563  -0.00269
   D18       -3.13724   0.00007   0.00013  -0.01036  -0.01019   3.13575
   D19       -0.00123  -0.00009  -0.00012  -0.00165  -0.00179  -0.00301
   D20       -3.13761  -0.00010  -0.00013  -0.00936  -0.00949   3.13609
   D21        3.13915  -0.00018  -0.00029   0.00245   0.00213   3.14128
   D22        0.00277  -0.00018  -0.00031  -0.00526  -0.00557  -0.00280
   D23        3.13610   0.00005   0.00006   0.01103   0.01106  -3.13603
   D24       -0.00423   0.00013   0.00024   0.00677   0.00698   0.00275
   D25       -0.00752   0.00016   0.00032   0.02232   0.02257   0.01505
   D26       -3.13467   0.00016   0.00024  -0.00893  -0.00871   3.13981
   D27        3.12698   0.00015   0.00033   0.03279   0.03308  -3.12312
   D28       -0.00017   0.00015   0.00025   0.00154   0.00180   0.00164
   D29       -1.22260   0.00045   0.00093   0.09146   0.09237  -1.13023
   D30        2.96323   0.00024   0.00041   0.08939   0.08978   3.05301
   D31        0.88786   0.00036   0.00049   0.08598   0.08646   0.97432
   D32        1.90196   0.00045   0.00100   0.12829   0.12931   2.03127
   D33       -0.19540   0.00024   0.00048   0.12622   0.12672  -0.06868
   D34       -2.27077   0.00036   0.00056   0.12281   0.12340  -2.14737
   D35       -0.00270  -0.00009  -0.00012   0.00287   0.00274   0.00004
   D36        3.14107   0.00003   0.00008   0.00318   0.00325  -3.13887
   D37       -3.13070  -0.00009  -0.00019  -0.02652  -0.02672   3.12576
   D38        0.01307   0.00002   0.00000  -0.02621  -0.02622  -0.01315
   D39        0.00433  -0.00002  -0.00007  -0.00601  -0.00608  -0.00175
   D40       -3.13955  -0.00014  -0.00027  -0.00633  -0.00662   3.13701
         Item               Value     Threshold  Converged?
 Maximum Force            0.004440     0.000450     NO 
 RMS     Force            0.000877     0.000300     NO 
 Maximum Displacement     0.237464     0.001800     NO 
 RMS     Displacement     0.048747     0.001200     NO 
 Predicted change in Energy=-3.071706D-04
 GradGradGradGradGradGradGradGradGradGradGradGradGradGradGradGradGradGrad

                          Input orientation:                          
 ---------------------------------------------------------------------
 Center     Atomic      Atomic             Coordinates (Angstroms)
 Number     Number       Type             X           Y           Z
 ---------------------------------------------------------------------
      1          9           0       -0.419517    2.628981   -0.776860
      2         16           0        0.214441    2.329748    0.680059
      3          6           0        0.971210    0.742939    0.291434
      4          7           0        2.286424    0.712079    0.391262
      5          6           0        2.898628   -0.461236    0.159995
      6          7           0        2.334976   -1.618776   -0.165280
      7          6           0        1.009312   -1.577801   -0.270172
      8          6           0        0.243832   -0.393319   -0.050126
      9          7           0       -1.059843   -0.760676   -0.259336
     10          6           0       -2.269531    0.039359   -0.195404
     11          6           0       -1.008169   -2.092707   -0.578570
     12          7           0        0.184923   -2.621674   -0.597487
     13          8           0       -0.916794    2.107564    1.553981
     14          8           0        1.205293    3.341097    0.918072
     15          1           0        3.980708   -0.450769    0.254146
     16          1           0       -2.439493    0.398820    0.820018
     17          1           0       -3.103690   -0.588626   -0.512766
     18          1           0       -2.189399    0.895768   -0.866744
     19          1           0       -1.923311   -2.630769   -0.796221
 ---------------------------------------------------------------------
                    Distance matrix (angstroms):
                    1          2          3          4          5
     1  F    0.000000
     2  S    1.616804   0.000000
     3  C    2.575370   1.800470   0.000000
     4  N    3.515841   2.644498   1.319358   0.000000
     5  C    4.630035   3.907034   2.276456   1.343483   0.000000
     6  N    5.099481   4.560933   2.765166   2.396869   1.327932
     7  C    4.471610   4.099231   2.388030   2.704081   2.236352
     8  C    3.178439   2.819420   1.391699   2.364088   2.663964
     9  N    3.488212   3.472317   2.586384   3.713460   3.991865
    10  C    3.235241   3.490335   3.351782   4.642570   5.204495
    11  C    4.762371   4.757839   3.565913   4.434156   4.297701
    12  N    5.288374   5.113665   3.567779   4.062984   3.550417
    13  O    2.439668   1.446651   2.649676   3.682377   4.806181
    14  O    2.453551   1.435710   2.682889   2.891039   4.230816
    15  H    5.468987   4.700792   3.237809   2.059518   1.086219
    16  H    3.406455   3.285032   3.468532   4.755655   5.447097
    17  H    4.198515   4.577088   4.361721   5.618045   6.041246
    18  H    2.478828   3.198022   3.369596   4.652882   5.365041
    19  H    5.470534   5.599654   4.576369   5.505145   5.373297
                    6          7          8          9         10
     6  N    0.000000
     7  C    1.330439   0.000000
     8  C    2.426498   1.427367   0.000000
     9  N    3.502853   2.224682   1.370506   0.000000
    10  C    4.894058   3.656721   2.554468   1.451720   0.000000
    11  C    3.401770   2.104867   2.175932   1.370725   2.506702
    12  N    2.411501   1.369826   2.295352   2.264310   3.642404
    13  O    5.235979   4.540851   3.189769   3.396378   3.027824
    14  O    5.200978   5.064176   3.975887   4.831322   4.920946
    15  H    2.061211   3.220916   3.749683   5.076106   6.285524
    16  H    5.276084   4.121869   2.929995   2.100684   1.090496
    17  H    5.546264   4.237228   3.384979   2.066673   1.091286
    18  H    5.223500   4.087320   2.872145   2.094910   1.091125
    19  H    4.422129   3.160024   3.203022   2.128631   2.758701
                   11         12         13         14         15
    11  C    0.000000
    12  N    1.305232   0.000000
    13  O    4.711518   5.311147   0.000000
    14  O    6.055211   6.236402   2.535595   0.000000
    15  H    5.317731   4.454895   5.676281   4.745732   0.000000
    16  H    3.195692   4.245028   2.403564   4.685197   6.500846
    17  H    2.580271   3.867225   4.040222   6.004778   7.127121
    18  H    3.226350   4.252328   2.991301   4.548531   6.414029
    19  H    1.083683   2.117600   5.384081   6.956303   6.380683
                   16         17         18         19
    16  H    0.000000
    17  H    1.786763   0.000000
    18  H    1.776138   1.778947   0.000000
    19  H    3.472331   2.375708   3.537264   0.000000
 Stoichiometry    C6H5FN4O2S
 Framework group  C1[X(C6H5FN4O2S)]
 Deg. of freedom    51
 Full point group                 C1      NOp   1
 Largest Abelian subgroup         C1      NOp   1
 Largest concise Abelian subgroup C1      NOp   1
                         Standard orientation:                         
 ---------------------------------------------------------------------
 Center     Atomic      Atomic             Coordinates (Angstroms)
 Number     Number       Type             X           Y           Z
 ---------------------------------------------------------------------
      1          9           0        1.961618   -0.740931    1.300737
      2         16           0        1.955171    0.024267   -0.123512
      3          6           0        0.283840    0.687603   -0.032259
      4          7           0        0.205682    2.004571   -0.018373
      5          6           0       -1.020656    2.552957   -0.000637
      6          7           0       -2.189670    1.923070    0.006669
      7          6           0       -2.102209    0.595531   -0.000982
      8          6           0       -0.859297   -0.106052   -0.019050
      9          7           0       -1.193678   -1.435133   -0.014487
     10          6           0       -0.335879   -2.606289   -0.006448
     11          6           0       -2.564099   -1.458028    0.003112
     12          7           0       -3.147059   -0.290237    0.010313
     13          8           0        1.990081   -1.021405   -1.122588
     14          8           0        2.939938    1.065709   -0.040475
     15          1           0       -1.047393    3.638819    0.007114
     16          1           0        0.245587   -2.663261   -0.927226
     17          1           0       -0.972825   -3.487464    0.087014
     18          1           0        0.347365   -2.565632    0.843304
     19          1           0       -3.087306   -2.406993    0.012581
 ---------------------------------------------------------------------
 Rotational constants (GHZ):           1.0573430           0.5979969           0.4162021
 Standard basis: 6-31G(d) (6D, 7F)
 There are   224 symmetry adapted cartesian basis functions of A   symmetry.
 There are   224 symmetry adapted basis functions of A   symmetry.
   224 basis functions,   436 primitive gaussians,   224 cartesian basis functions
    55 alpha electrons       55 beta electrons
       nuclear repulsion energy      1071.6440554183 Hartrees.
 NAtoms=   19 NActive=   19 NUniq=   19 SFac= 1.00D+00 NAtFMM=   60 NAOKFM=F Big=F
 Integral buffers will be    131072 words long.
 Raffenetti 2 integral format.
 Two-electron integral symmetry is turned on.
 R6APFD:  NTU= -4 IXU= 1 FactS= 1.050
 Nuclear repulsion after empirical dispersion term =     1071.6248675158 Hartrees.
 One-electron integrals computed using PRISM.
 NBasis=   224 RedAO= T EigKep=  7.14D-04  NBF=   224
 NBsUse=   224 1.00D-06 EigRej= -1.00D+00 NBFU=   224
 Initial guess from the checkpoint file:  "HEPOQLABXQGDTL-UHFFFAOYSA-N_conf_0_0.chk"
 B after Tr=    -0.000000   -0.000000   -0.000000
         Rot=    0.999998    0.001376   -0.001094   -0.001304 Ang=   0.25 deg.
 ExpMin= 1.17D-01 ExpMax= 2.19D+04 ExpMxC= 3.30D+03 IAcc=2 IRadAn=         4 AccDes= 0.00D+00
 Harris functional with IExCor= 3731 and IRadAn=       4 diagonalized for initial guess.
 HarFok:  IExCor= 3731 AccDes= 0.00D+00 IRadAn=         4 IDoV= 1 UseB2=F ITyADJ=14
 ICtDFT=  3500011 ScaDFX=  1.000000  1.000000  1.000000  1.000000
 FoFCou: FMM=F IPFlag=           0 FMFlag=      100000 FMFlg1=           0
         NFxFlg=           0 DoJE=T BraDBF=F KetDBF=T FulRan=T
         wScrn=  0.000000 ICntrl=       500 IOpCl=  0 I1Cent=   200000004 NGrid=           0
         NMat0=    1 NMatS0=      1 NMatT0=    0 NMatD0=    1 NMtDS0=    0 NMtDT0=    0
 Petite list used in FoFCou.
 Keep R1 ints in memory in canonical form, NReq=323229189.
 Requested convergence on RMS density matrix=1.00D-08 within  32 cycles.
 Requested convergence on MAX density matrix=1.00D-06.
 Requested convergence on             energy=1.00D-06.
 No special actions if energy rises.
 Integral accuracy reduced to 1.0D-05 until final iterations.
 Initial convergence to 1.0D-05 achieved.  Increase integral accuracy.
 SCF Done:  E(RAPFD) =  -1098.42774926     A.U. after   12 cycles
            NFock= 12  Conv=0.51D-08     -V/T= 2.0066
 QCSCF skips out because SCF is already converged.
 R6APFD:  NTU= -4 IXU= 1 FactS= 1.050
 Calling FoFJK, ICntrl=      2127 FMM=F ISym2X=0 I1Cent= 0 IOpClX= 0 NMat=1 NMatS=1 NMatT=0.
 ***** Axes restored to original set *****
 -------------------------------------------------------------------
 Center     Atomic                   Forces (Hartrees/Bohr)
 Number     Number              X              Y              Z
 -------------------------------------------------------------------
      1        9          -0.000160463   -0.000350440    0.000093936
      2       16           0.000312288    0.000322337    0.000073684
      3        6           0.001051711   -0.000179439   -0.000063802
      4        7          -0.001434493   -0.000004473   -0.000114519
      5        6           0.000092422    0.000074372    0.000035887
      6        7           0.000152561   -0.000037806    0.000028473
      7        6           0.000219834   -0.000390559   -0.000226509
      8        6          -0.000039045    0.000554113    0.000348581
      9        7           0.000133272    0.000059949    0.000076093
     10        6          -0.000080070   -0.000109951   -0.000184036
     11        6          -0.000354358    0.000042070   -0.000068695
     12        7           0.000051650   -0.000031005    0.000037293
     13        8           0.000164090    0.000212881    0.000155621
     14        8          -0.000012378    0.000056145    0.000046830
     15        1          -0.000000618   -0.000010449   -0.000006669
     16        1           0.000055952   -0.000140251   -0.000102261
     17        1          -0.000099369    0.000013563   -0.000025311
     18        1          -0.000046609   -0.000026929   -0.000098158
[...]
    18  H   -0.001226   0.000012   0.000000  -0.029818  -0.023501   0.480794
    19  H   -0.000000  -0.000000  -0.000000  -0.000056   0.003905  -0.000057
              19
     1  F   -0.000000
     2  S   -0.000004
     3  C   -0.000132
     4  N    0.000003
     5  C    0.000006
     6  N   -0.000089
     7  C    0.006690
     8  C    0.003542
     9  N   -0.053531
    10  C   -0.000106
    11  C    0.387392
    12  N   -0.036231
    13  O   -0.000000
    14  O   -0.000000
    15  H   -0.000000
    16  H   -0.000056
    17  H    0.003905
    18  H   -0.000057
    19  H    0.482233
 Mulliken charges:
               1
     1  F   -0.320715
     2  S    1.287719
     3  C   -0.090199
     4  N   -0.391010
     5  C    0.192303
     6  N   -0.441788
     7  C    0.424202
     8  C    0.408691
     9  N   -0.553824
    10  C   -0.417668
    11  C    0.207976
    12  N   -0.465330
    13  O   -0.498112
    14  O   -0.444176
    15  H    0.214369
    16  H    0.251612
    17  H    0.203470
    18  H    0.226046
    19  H    0.206435
 Sum of Mulliken charges =   0.00000
 Mulliken charges with hydrogens summed into heavy atoms:
               1
     1  F   -0.320715
     2  S    1.287719
     3  C   -0.090199
     4  N   -0.391010
     5  C    0.406672
     6  N   -0.441788
     7  C    0.424202
     8  C    0.408691
     9  N   -0.553824
    10  C    0.263460
    11  C    0.414411
    12  N   -0.465330
    13  O   -0.498112
    14  O   -0.444176
 Electronic spatial extent (au):  <R**2>=           2549.7202
 Charge=             -0.0000 electrons
 Dipole moment (field-independent basis, Debye):
    X=             -2.6413    Y=             -2.5479    Z=              0.5936  Tot=              3.7176
 Quadrupole moment (field-independent basis, Debye-Ang):
   XX=           -101.0608   YY=            -70.3983   ZZ=            -86.8168
   XY=              1.6953   XZ=              1.4854   YZ=             -1.3580
 Traceless Quadrupole moment (field-independent basis, Debye-Ang):
   XX=            -14.9688   YY=             15.6937   ZZ=             -0.7249
   XY=              1.6953   XZ=              1.4854   YZ=             -1.3580
 Octapole moment (field-independent basis, Debye-Ang**2):
  XXX=             41.8940  YYY=            -17.5972  ZZZ=              6.7868  XYY=            -18.7284
  XXY=            -23.7142  XXZ=              4.8706  XZZ=              9.1791  YZZ=             -0.8969
  YYZ=              2.8589  XYZ=             -3.0423
 Hexadecapole moment (field-independent basis, Debye-Ang**3):
 XXXX=          -2073.9976 YYYY=           -966.6136 ZZZZ=           -176.1270 XXXY=             16.2241
 XXXZ=             18.6458 YYYX=              1.2996 YYYZ=             -4.3860 ZZZX=             13.2325
 ZZZY=             -5.7744 XXYY=           -480.9424 XXZZ=           -352.8936 YYZZ=           -225.7391
 XXYZ=             -8.3356 YYXZ=              5.7062 ZZXY=              1.3451
 N-N= 1.071695370188D+03 E-N=-4.725228416395D+03  KE= 1.091282488512D+03
 Evaluate density.
 Using the total density.
 Monte-Carlo method of calculating molar volume:
 based on  0.001 e/bohr**3 density envelope.
 Number of points per bohr**3 =   20 CutOff= 1.00D-04
 Using the CI density.
 There are       419 points.  Will hold       419 in memory.
 LenV=   805160436 MDV=   805306368.
 Box volume = 9252.667 fraction occupied=0.131
 Integrated density= 7.3169355071316502D+01 error=-3.6830644928683498D+01
 Molar volume = 1214.551 bohr**3/mol (108.385 cm**3/mol)
 Recommended a0 for SCRF calculation =  4.35 angstrom (  8.23 bohr)
 ******************************Gaussian NBO Version 3.1******************************
             N A T U R A L   A T O M I C   O R B I T A L   A N D
          N A T U R A L   B O N D   O R B I T A L   A N A L Y S I S
 ******************************Gaussian NBO Version 3.1******************************
       /RESON  / : Allow strongly delocalized NBO set

 Analyzing the CI density

 Job title: HEPOQLABXQGDTL-UHFFFAOYSA-N_conf_0                              

 Storage needed:    151854 in NPA ( 805304373 available)


 NATURAL POPULATIONS:  Natural atomic orbital occupancies 
                                                          
   NAO  Atom  No  lang   Type(AO)    Occupancy
 --------------------------------------------
     1    F    1  S      Cor( 1S)     1.99997
     2    F    1  S      Val( 2S)     1.93015
     3    F    1  S      Ryd( 3S)     0.00245
     4    F    1  S      Ryd( 4S)     0.00011
     5    F    1  px     Val( 2p)     1.95085
     6    F    1  px     Ryd( 3p)     0.00018
     7    F    1  py     Val( 2p)     1.87944
     8    F    1  py     Ryd( 3p)     0.00018
     9    F    1  pz     Val( 2p)     1.74088
    10    F    1  pz     Ryd( 3p)     0.00035
    11    F    1  dxy    Ryd( 3d)     0.00047
    12    F    1  dxz    Ryd( 3d)     0.00148
    13    F    1  dyz    Ryd( 3d)     0.00176
    14    F    1  dx2y2  Ryd( 3d)     0.00048
    15    F    1  dz2    Ryd( 3d)     0.00202
 
    16    S    2  S      Cor( 1S)     2.00000
    17    S    2  S      Cor( 2S)     1.99915
    18    S    2  S      Val( 3S)     1.03511
    19    S    2  S      Ryd( 4S)     0.00449
    20    S    2  S      Ryd( 5S)     0.00037
    21    S    2  px     Cor( 2p)     1.99990
    22    S    2  px     Val( 3p)     0.85678
    23    S    2  px     Ryd( 4p)     0.01003
    24    S    2  py     Cor( 2p)     1.99988
    25    S    2  py     Val( 3p)     0.73719
    26    S    2  py     Ryd( 4p)     0.01253
    27    S    2  pz     Cor( 2p)     1.99988
    28    S    2  pz     Val( 3p)     0.76490
    29    S    2  pz     Ryd( 4p)     0.00893
    30    S    2  dxy    Ryd( 3d)     0.03200
    31    S    2  dxz    Ryd( 3d)     0.02703
    32    S    2  dyz    Ryd( 3d)     0.03654
    33    S    2  dx2y2  Ryd( 3d)     0.03941
    34    S    2  dz2    Ryd( 3d)     0.03494
 
    35    C    3  S      Cor( 1S)     1.99868
    36    C    3  S      Val( 2S)     0.91142
    37    C    3  S      Ryd( 3S)     0.00422
    38    C    3  S      Ryd( 4S)     0.00017
    39    C    3  px     Val( 2p)     1.09017
    40    C    3  px     Ryd( 3p)     0.00810
    41    C    3  py     Val( 2p)     0.95388
    42    C    3  py     Ryd( 3p)     0.01353
    43    C    3  pz     Val( 2p)     1.23487
    44    C    3  pz     Ryd( 3p)     0.00708
    45    C    3  dxy    Ryd( 3d)     0.00123
    46    C    3  dxz    Ryd( 3d)     0.00065
    47    C    3  dyz    Ryd( 3d)     0.00134
    48    C    3  dx2y2  Ryd( 3d)     0.00078
    49    C    3  dz2    Ryd( 3d)     0.00039
 
    50    N    4  S      Cor( 1S)     1.99924
    51    N    4  S      Val( 2S)     1.34371
    52    N    4  S      Ryd( 3S)     0.00076
    53    N    4  S      Ryd( 4S)     0.00002
    54    N    4  px     Val( 2p)     1.29362
    55    N    4  px     Ryd( 3p)     0.00532
    56    N    4  py     Val( 2p)     1.34022
    57    N    4  py     Ryd( 3p)     0.00370
    58    N    4  pz     Val( 2p)     1.34990
    59    N    4  pz     Ryd( 3p)     0.00295
    60    N    4  dxy    Ryd( 3d)     0.00244
    61    N    4  dxz    Ryd( 3d)     0.00274
    62    N    4  dyz    Ryd( 3d)     0.00132
    63    N    4  dx2y2  Ryd( 3d)     0.00279
    64    N    4  dz2    Ryd( 3d)     0.00178
 
    65    C    5  S      Cor( 1S)     1.99939
    66    C    5  S      Val( 2S)     0.91522
    67    C    5  S      Ryd( 3S)     0.00164
    68    C    5  S      Ryd( 4S)     0.00012
    69    C    5  px     Val( 2p)     0.81461
    70    C    5  px     Ryd( 3p)     0.01084
    71    C    5  py     Val( 2p)     1.13082
    72    C    5  py     Ryd( 3p)     0.00610
    73    C    5  pz     Val( 2p)     0.90535
    74    C    5  pz     Ryd( 3p)     0.00167
    75    C    5  dxy    Ryd( 3d)     0.00131
    76    C    5  dxz    Ryd( 3d)     0.00249
    77    C    5  dyz    Ryd( 3d)     0.00072
    78    C    5  dx2y2  Ryd( 3d)     0.00236
    79    C    5  dz2    Ryd( 3d)     0.00049
 
    80    N    6  S      Cor( 1S)     1.99914
    81    N    6  S      Val( 2S)     1.33363
    82    N    6  S      Ryd( 3S)     0.00097
    83    N    6  S      Ryd( 4S)     0.00001
    84    N    6  px     Val( 2p)     1.22508
    85    N    6  px     Ryd( 3p)     0.00380
    86    N    6  py     Val( 2p)     1.25810
    87    N    6  py     Ryd( 3p)     0.00347
    88    N    6  pz     Val( 2p)     1.45438
    89    N    6  pz     Ryd( 3p)     0.00299
    90    N    6  dxy    Ryd( 3d)     0.00101
    91    N    6  dxz    Ryd( 3d)     0.00218
    92    N    6  dyz    Ryd( 3d)     0.00084
    93    N    6  dx2y2  Ryd( 3d)     0.00113
    94    N    6  dz2    Ryd( 3d)     0.00040
 
    95    C    7  S      Cor( 1S)     1.99900
    96    C    7  S      Val( 2S)     0.81016
    97    C    7  S      Ryd( 3S)     0.00359
    98    C    7  S      Ryd( 4S)     0.00018
    99    C    7  px     Val( 2p)     0.94529
   100    C    7  px     Ryd( 3p)     0.01041
   101    C    7  py     Val( 2p)     0.89894
   102    C    7  py     Ryd( 3p)     0.00559
   103    C    7  pz     Val( 2p)     1.02538
   104    C    7  pz     Ryd( 3p)     0.00157
   105    C    7  dxy    Ryd( 3d)     0.00120
   106    C    7  dxz    Ryd( 3d)     0.00102
   107    C    7  dyz    Ryd( 3d)     0.00232
   108    C    7  dx2y2  Ryd( 3d)     0.00180
   109    C    7  dz2    Ryd( 3d)     0.00039
 
   110    C    8  S      Cor( 1S)     1.99886
   111    C    8  S      Val( 2S)     0.83672
   112    C    8  S      Ryd( 3S)     0.00292
   113    C    8  S      Ryd( 4S)     0.00010
   114    C    8  px     Val( 2p)     1.05305
   115    C    8  px     Ryd( 3p)     0.00626
   116    C    8  py     Val( 2p)     0.91258
   117    C    8  py     Ryd( 3p)     0.00553
   118    C    8  pz     Val( 2p)     1.07482
   119    C    8  pz     Ryd( 3p)     0.00244
   120    C    8  dxy    Ryd( 3d)     0.00084
   121    C    8  dxz    Ryd( 3d)     0.00114
   122    C    8  dyz    Ryd( 3d)     0.00153
   123    C    8  dx2y2  Ryd( 3d)     0.00101
   124    C    8  dz2    Ryd( 3d)     0.00045
 
   125    N    9  S      Cor( 1S)     1.99926
   126    N    9  S      Val( 2S)     1.18447
   127    N    9  S      Ryd( 3S)     0.00110
   128    N    9  S      Ryd( 4S)     0.00002
   129    N    9  px     Val( 2p)     1.32617
   130    N    9  px     Ryd( 3p)     0.00211
   131    N    9  py     Val( 2p)     1.29844
   132    N    9  py     Ryd( 3p)     0.00232
   133    N    9  pz     Val( 2p)     1.55598
   134    N    9  pz     Ryd( 3p)     0.00267
   135    N    9  dxy    Ryd( 3d)     0.00070
   136    N    9  dxz    Ryd( 3d)     0.00098
   137    N    9  dyz    Ryd( 3d)     0.00090
   138    N    9  dx2y2  Ryd( 3d)     0.00081
   139    N    9  dz2    Ryd( 3d)     0.00057
 
   140    C   10  S      Cor( 1S)     1.99943
   141    C   10  S      Val( 2S)     1.09679
   142    C   10  S      Ryd( 3S)     0.00132
   143    C   10  S      Ryd( 4S)     0.00002
   144    C   10  px     Val( 2p)     1.13531
   145    C   10  px     Ryd( 3p)     0.00352
   146    C   10  py     Val( 2p)     0.97285
   147    C   10  py     Ryd( 3p)     0.00319
   148    C   10  pz     Val( 2p)     1.28278
   149    C   10  pz     Ryd( 3p)     0.00135
   150    C   10  dxy    Ryd( 3d)     0.00134
   151    C   10  dxz    Ryd( 3d)     0.00125
   152    C   10  dyz    Ryd( 3d)     0.00043
   153    C   10  dx2y2  Ryd( 3d)     0.00037
   154    C   10  dz2    Ryd( 3d)     0.00094
 
   155    C   11  S      Cor( 1S)     1.99936
   156    C   11  S      Val( 2S)     0.89407
   157    C   11  S      Ryd( 3S)     0.00246
   158    C   11  S      Ryd( 4S)     0.00014
   159    C   11  px     Val( 2p)     0.82385
   160    C   11  px     Ryd( 3p)     0.00911
   161    C   11  py     Val( 2p)     1.05895
   162    C   11  py     Ryd( 3p)     0.00717
   163    C   11  pz     Val( 2p)     0.99780
   164    C   11  pz     Ryd( 3p)     0.00339
   165    C   11  dxy    Ryd( 3d)     0.00129
   166    C   11  dxz    Ryd( 3d)     0.00143
   167    C   11  dyz    Ryd( 3d)     0.00101
   168    C   11  dx2y2  Ryd( 3d)     0.00184
   169    C   11  dz2    Ryd( 3d)     0.00046
 
   170    N   12  S      Cor( 1S)     1.99942
   171    N   12  S      Val( 2S)     1.40280
   172    N   12  S      Ryd( 3S)     0.00079
   173    N   12  S      Ryd( 4S)     0.00001
   174    N   12  px     Val( 2p)     1.54055
   175    N   12  px     Ryd( 3p)     0.00378
   176    N   12  py     Val( 2p)     1.21108
   177    N   12  py     Ryd( 3p)     0.00385
   178    N   12  pz     Val( 2p)     1.26581
   179    N   12  pz     Ryd( 3p)     0.00074
   180    N   12  dxy    Ryd( 3d)     0.00364
   181    N   12  dxz    Ryd( 3d)     0.00408
   182    N   12  dyz    Ryd( 3d)     0.00081
   183    N   12  dx2y2  Ryd( 3d)     0.00299
   184    N   12  dz2    Ryd( 3d)     0.00245
 
   185    O   13  S      Cor( 1S)     1.99988
   186    O   13  S      Val( 2S)     1.82949
   187    O   13  S      Ryd( 3S)     0.00133
   188    O   13  S      Ryd( 4S)     0.00012
   189    O   13  px     Val( 2p)     1.79163
   190    O   13  px     Ryd( 3p)     0.00086
   191    O   13  py     Val( 2p)     1.64730
   192    O   13  py     Ryd( 3p)     0.00066
   193    O   13  pz     Val( 2p)     1.61175
   194    O   13  pz     Ryd( 3p)     0.00071
   195    O   13  dxy    Ryd( 3d)     0.00255
   196    O   13  dxz    Ryd( 3d)     0.00350
   197    O   13  dyz    Ryd( 3d)     0.00579
   198    O   13  dx2y2  Ryd( 3d)     0.00283
   199    O   13  dz2    Ryd( 3d)     0.00511
 
   200    O   14  S      Cor( 1S)     1.99988
   201    O   14  S      Val( 2S)     1.82448
   202    O   14  S      Ryd( 3S)     0.00113
   203    O   14  S      Ryd( 4S)     0.00012
   204    O   14  px     Val( 2p)     1.64865
   205    O   14  px     Ryd( 3p)     0.00077
   206    O   14  py     Val( 2p)     1.62002
   207    O   14  py     Ryd( 3p)     0.00093
   208    O   14  pz     Val( 2p)     1.75045
   209    O   14  pz     Ryd( 3p)     0.00056
   210    O   14  dxy    Ryd( 3d)     0.00599
   211    O   14  dxz    Ryd( 3d)     0.00329
   212    O   14  dyz    Ryd( 3d)     0.00324
   213    O   14  dx2y2  Ryd( 3d)     0.00647
   214    O   14  dz2    Ryd( 3d)     0.00224
 
   215    H   15  S      Val( 1S)     0.75654
   216    H   15  S      Ryd( 2S)     0.00098
 
   217    H   16  S      Val( 1S)     0.72473
   218    H   16  S      Ryd( 2S)     0.00110
 
   219    H   17  S      Val( 1S)     0.74861
   220    H   17  S      Ryd( 2S)     0.00064
 
   221    H   18  S      Val( 1S)     0.73789
   222    H   18  S      Ryd( 2S)     0.00141
 
   223    H   19  S      Val( 1S)     0.76120
   224    H   19  S      Ryd( 2S)     0.00048

 WARNING:  1 low occupancy (<1.9990e) core orbital  found on  C    3
           1 low occupancy (<1.9990e) core orbital  found on  C    7
           1 low occupancy (<1.9990e) core orbital  found on  C    8


 Summary of Natural Population Analysis:                  
                                                          
                                       Natural Population 
                Natural  -----------------------------------------------
    Atom  No    Charge         Core      Valence    Rydberg      Total
 -----------------------------------------------------------------------
      F    1   -0.51079      1.99997     7.50132    0.00950     9.51079
      S    2    2.40092      9.99881     3.39398    0.20629    13.59908
      C    3   -0.22650      1.99868     4.19034    0.03747     6.22650
      N    4   -0.35049      1.99924     5.32745    0.02381     7.35049
      C    5    0.20687      1.99939     3.76601    0.02773     5.79313
      N    6   -0.28713      1.99914     5.27118    0.01681     7.28713
      C    7    0.29317      1.99900     3.67976    0.02807     5.70683
      C    8    0.10176      1.99886     3.87717    0.02221     5.89824
      N    9   -0.37649      1.99926     5.36506    0.01217     7.37649
      C   10   -0.50091      1.99943     4.48773    0.01375     6.50091
      C   11    0.19768      1.99936     3.77467    0.02830     5.80232
      N   12   -0.44280      1.99942     5.42025    0.02314     7.44280
      O   13   -0.90349      1.99988     6.88016    0.02345     8.90349
      O   14   -0.86821      1.99988     6.84359    0.02474     8.86821
      H   15    0.24247      0.00000     0.75654    0.00098     0.75753
      H   16    0.27416      0.00000     0.72473    0.00110     0.72584
      H   17    0.25075      0.00000     0.74861    0.00064     0.74925
      H   18    0.26070      0.00000     0.73789    0.00141     0.73930
      H   19    0.23832      0.00000     0.76120    0.00048     0.76168
 =======================================================================
   * Total *    0.00000     35.99031    73.50764    0.50205   110.00000

                                 Natural Population      
 --------------------------------------------------------
   Core                      35.99031 ( 99.9731% of  36)
   Valence                   73.50764 ( 99.3347% of  74)
   Natural Minimal Basis    109.49795 ( 99.5436% of 110)
   Natural Rydberg Basis      0.50205 (  0.4564% of 110)
 --------------------------------------------------------

    Atom  No          Natural Electron Configuration
 ----------------------------------------------------------------------------
      F    1      [core]2S( 1.93)2p( 5.57)3d( 0.01)
      S    2      [core]3S( 1.04)3p( 2.36)3d( 0.17)4p( 0.03)
      C    3      [core]2S( 0.91)2p( 3.28)3p( 0.03)
      N    4      [core]2S( 1.34)2p( 3.98)3p( 0.01)3d( 0.01)
      C    5      [core]2S( 0.92)2p( 2.85)3p( 0.02)3d( 0.01)
      N    6      [core]2S( 1.33)2p( 3.94)3p( 0.01)3d( 0.01)
      C    7      [core]2S( 0.81)2p( 2.87)3p( 0.02)3d( 0.01)
      C    8      [core]2S( 0.84)2p( 3.04)3p( 0.01)
      N    9      [core]2S( 1.18)2p( 4.18)3p( 0.01)
      C   10      [core]2S( 1.10)2p( 3.39)3p( 0.01)
      C   11      [core]2S( 0.89)2p( 2.88)3p( 0.02)3d( 0.01)
      N   12      [core]2S( 1.40)2p( 4.02)3p( 0.01)3d( 0.01)
      O   13      [core]2S( 1.83)2p( 5.05)3d( 0.02)
      O   14      [core]2S( 1.82)2p( 5.02)3d( 0.02)
      H   15            1S( 0.76)
      H   16            1S( 0.72)
      H   17            1S( 0.75)
      H   18            1S( 0.74)
      H   19            1S( 0.76)


 NBO analysis skipped by request.
 1\1\GINC-DELLA-R3C4N5\SP\RAPFD TD-FC\6-31G(d)\C6H5F1N4O2S1\SHIVAANI\28
 -Jan-2024\0\\# TD(NStates=10, Root=1) APFD/6-31G* volume pop=NPA densi
 ty=current Geom=AllCheck Guess=Read\\HEPOQLABXQGDTL-UHFFFAOYSA-N_conf_
 0\\0,1\F,0,-0.4743884967,2.5931316853,-0.7451831742\S,0,0.2171317472,2
 .3287993605,0.6924138312\C,0,0.9717016382,0.7412043004,0.2991029816\N,
 0,2.2847454066,0.7078170521,0.4064759297\C,0,2.8980297876,-0.464637483
 5,0.1725503239\N,0,2.3355975051,-1.6195243625,-0.1635313882\C,0,1.0102
 445962,-1.5767188344,-0.2753604257\C,0,0.2444578468,-0.3927973058,-0.0
 499226358\N,0,-1.0586984298,-0.7584190698,-0.2659701574\C,0,-2.2675279
 6,0.0432658425,-0.2081978537\C,0,-1.0068311748,-2.0879968462,-0.594993
 8534\N,0,0.1862328418,-2.6175392765,-0.6128521426\O,0,-0.8786856279,2.
 1150329926,1.6125228497\O,0,1.2072322691,3.3525940139,0.8737036165\H,0
 ,3.9794844239,-0.4553892103,0.2734995492\H,0,-2.3992567879,0.461590456
 3,0.7901134088\H,0,-3.1118405394,-0.6034596971,-0.4527528188\H,0,-2.21
 622273,0.8576500236,-0.9329600646\H,0,-1.921406316,-2.6246036409,-0.81
 86579763\\Version=ES64L-G16RevA.03\State=1-A\HF=-1098.4277943\RMSD=9.6
 55e-09\Dipole=-0.9174344,-0.9897575,-0.563836\Quadrupole=11.1525718,-9
 .9976541,-1.1549177,2.0243723,2.7142272,-3.1096776\PG=C01 [X(C6H5F1N4O
 2S1)]\\@


 Make no judgements where you have no compassion.
                               -- Anne McCaffrey
 Job cpu time:       0 days  0 hours 17 minutes 30.7 seconds.
 Elapsed time:       0 days  0 hours  6 minutes  0.3 seconds.
 File lengths (MBytes):  RWF=    458 Int=      0 D2E=      0 Chk=    268 Scr=      1
 Normal termination of Gaussian 16 at Sun Jan 28 15:27:25 2024.
