 Entering Gaussian System, Link 0=g16
 Input=ZUMPXWNMJGCXDJ-UHFFFAOYSA-N_conf_0.gjf
 Output=ZUMPXWNMJGCXDJ-UHFFFAOYSA-N_conf_0.log
 Initial command:
 /opt/export/g16/l1.exe "/tmp/Gau-2240923.inp" -scrdir="/tmp/"
 Entering Link 1 = /opt/export/g16/l1.exe PID=   2240926.
  
 Copyright (c) 1988,1990,1992,1993,1995,1998,2003,2009,2016,
            Gaussian, Inc.  All Rights Reserved.
  
 This is part of the Gaussian(R) 16 program.  It is based on
 the Gaussian(R) 09 system (copyright 2009, Gaussian, Inc.),
 the Gaussian(R) 03 system (copyright 2003, Gaussian, Inc.),
 the Gaussian(R) 98 system (copyright 1998, Gaussian, Inc.),
 the Gaussian(R) 94 system (copyright 1995, Gaussian, Inc.),
 the Gaussian 92(TM) system (copyright 1992, Gaussian, Inc.),
 the Gaussian 90(TM) system (copyright 1990, Gaussian, Inc.),
 the Gaussian 88(TM) system (copyright 1988, Gaussian, Inc.),
 the Gaussian 86(TM) system (copyright 1986, Carnegie Mellon
 University), and the Gaussian 82(TM) system (copyright 1983,
 Carnegie Mellon University). Gaussian is a federally registered
 trademark of Gaussian, Inc.
  
 This software contains proprietary and confidential information,
 including trade secrets, belonging to Gaussian, Inc.
  
 This software is provided under written license and may be
 used, copied, transmitted, or stored only in accord with that
 written license.
  
 The following legend is applicable only to US Government
 contracts under FAR:
  
                    RESTRICTED RIGHTS LEGEND
  
 Use, reproduction and disclosure by the US Government is
 subject to restrictions as set forth in subparagraphs (a)
 and (c) of the Commercial Computer Software - Restricted
 Rights clause in FAR 52.227-19.
  
 Gaussian, Inc.
 340 Quinnipiac St., Bldg. 40, Wallingford CT 06492
  
  
 ---------------------------------------------------------------
 Warning -- This program may not be used in any manner that
 competes with the business of Gaussian, Inc. or will provide
 assistance to any competitor of Gaussian, Inc.  The licensee
 of this program is prohibited from giving any competitor of
 Gaussian, Inc. access to this program.  By using this program,
 the user acknowledges that Gaussian, Inc. is engaged in the
 business of creating and licensing software in the field of
 computational chemistry and represents and warrants to the
 licensee that it is not a competitor of Gaussian, Inc. and that
 it will not use this program in any manner prohibited above.
 ---------------------------------------------------------------
  

 Cite this work as:
 Gaussian 16, Revision A.03,
 M. J. Frisch, G. W. Trucks, H. B. Schlegel, G. E. Scuseria, 
 M. A. Robb, J. R. Cheeseman, G. Scalmani, V. Barone, 
 G. A. Petersson, H. Nakatsuji, X. Li, M. Caricato, A. V. Marenich, 
 J. Bloino, B. G. Janesko, R. Gomperts, B. Mennucci, H. P. Hratchian, 
 J. V. Ortiz, A. F. Izmaylov, J. L. Sonnenberg, D. Williams-Young, 
 F. Ding, F. Lipparini, F. Egidi, J. Goings, B. Peng, A. Petrone, 
 T. Henderson, D. Ranasinghe, V. G. Zakrzewski, J. Gao, N. Rega, 
 G. Zheng, W. Liang, M. Hada, M. Ehara, K. Toyota, R. Fukuda, 
 J. Hasegawa, M. Ishida, T. Nakajima, Y. Honda, O. Kitao, H. Nakai, 
 T. Vreven, K. Throssell, J. A. Montgomery, Jr., J. E. Peralta, 
 F. Ogliaro, M. J. Bearpark, J. J. Heyd, E. N. Brothers, K. N. Kudin, 
 V. N. Staroverov, T. A. Keith, R. Kobayashi, J. Normand, 
 K. Raghavachari, A. P. Rendell, J. C. Burant, S. S. Iyengar, 
 J. Tomasi, M. Cossi, J. M. Millam, M. Klene, C. Adamo, R. Cammi, 
 J. W. Ochterski, R. L. Martin, K. Morokuma, O. Farkas, 
 J. B. Foresman, and D. J. Fox, Gaussian, Inc., Wallingford CT, 2016.
 
 ******************************************
 Gaussian 16:  ES64L-G16RevA.03 25-Dec-2016
                28-Jan-2024 
 ******************************************
 %nprocshared=3
 Will use up to    3 processors via shared memory.
 %mem=6GB
 %Chk=ZUMPXWNMJGCXDJ-UHFFFAOYSA-N_conf_0_0.chk
 --------------------------------
 # opt=CalcFc APFD/6-31G* scf=xqc
 --------------------------------
 1/10=4,18=20,19=15,26=3,38=1/1,3;
 2/9=110,12=2,17=6,18=5,40=1/2;
 3/5=1,6=6,7=1,11=2,25=1,30=1,71=2,74=-44,140=1/1,2,3;
 4//1;
 5/5=2,8=3,13=1,38=5/2,8;
 8/6=4,10=90,11=11/1;
 11/6=1,8=1,9=11,15=111,16=1/1,2,10;
 10/6=1,13=1/2;
 6/7=2,8=2,9=2,10=2,28=1/1;
 7/10=1,18=20,25=1/1,2,3,16;
 1/10=4,18=20,19=15,26=3/3(2);
 2/9=110/2;
 99//99;
 2/9=110/2;
 3/5=1,6=6,7=1,11=2,25=1,30=1,71=1,74=-44/1,2,3;
 4/5=5,16=3,69=1/1;
 5/5=2,8=3,13=1,38=5/2,8;
 7//1,2,3,16;
 1/18=20,19=15,26=3/3(-5);
 2/9=110/2;
 6/7=2,8=2,9=2,10=2,19=2,28=1/1;
 99/9=1/99;
 ----------------------------------
 ZUMPXWNMJGCXDJ-UHFFFAOYSA-N_conf_0
 ----------------------------------
 Symbolic Z-matrix:
 Charge =  0 Multiplicity = 1
 C                    -2.98997  -0.71926   0.0666 
 N                    -1.6834   -0.20623   0.38359 
 C                    -1.33781   0.51707   1.49091 
 N                    -0.05964   0.83747   1.48498 
 C                    -0.5599   -0.35942  -0.37902 
 C                     0.43991   0.29704   0.32323 
 C                     1.68758   0.27242  -0.27023 
 S                     3.09242   1.03749   0.44258 
 F                     2.63583   1.70837   1.81279 
 O                     3.48605   2.15105  -0.40144 
 O                     4.03076   0.00088   0.83285 
 N                     1.88272  -0.36329  -1.46362 
 C                     0.81418  -0.95668  -2.02569 
 N                    -0.44573  -1.00396  -1.55206 
 H                    -2.92731  -1.80777  -0.00968 
 H                    -3.69299  -0.44375   0.8568 
 H                    -3.31292  -0.2859   -0.88341 
 H                    -2.04768   0.78191   2.2654 
 H                     0.98792  -1.45742  -2.97458 
 

 GradGradGradGradGradGradGradGradGradGradGradGradGradGradGradGradGradGrad
 Berny optimization.
 Initialization pass.
                           ----------------------------
                           !    Initial Parameters    !
                           ! (Angstroms and Degrees)  !
 --------------------------                            --------------------------
 ! Name  Definition              Value          Derivative Info.                !
 --------------------------------------------------------------------------------
 ! R1    R(1,2)                  1.439          calculate D2E/DX2 analytically  !
 ! R2    R(1,15)                 1.093          calculate D2E/DX2 analytically  !
 ! R3    R(1,16)                 1.093          calculate D2E/DX2 analytically  !
 ! R4    R(1,17)                 1.093          calculate D2E/DX2 analytically  !
 ! R5    R(2,3)                  1.367          calculate D2E/DX2 analytically  !
 ! R6    R(2,5)                  1.3665         calculate D2E/DX2 analytically  !
 ! R7    R(3,4)                  1.3177         calculate D2E/DX2 analytically  !
 ! R8    R(3,18)                 1.0835         calculate D2E/DX2 analytically  !
 ! R9    R(4,6)                  1.3752         calculate D2E/DX2 analytically  !
 ! R10   R(5,6)                  1.387          calculate D2E/DX2 analytically  !
 ! R11   R(5,14)                 1.3433         calculate D2E/DX2 analytically  !
 ! R12   R(6,7)                  1.3818         calculate D2E/DX2 analytically  !
 ! R13   R(7,8)                  1.7513         calculate D2E/DX2 analytically  !
 ! R14   R(7,12)                 1.3662         calculate D2E/DX2 analytically  !
 ! R15   R(8,9)                  1.5925         calculate D2E/DX2 analytically  !
 ! R16   R(8,10)                 1.4517         calculate D2E/DX2 analytically  !
 ! R17   R(8,11)                 1.4517         calculate D2E/DX2 analytically  !
 ! R18   R(12,13)                1.3453         calculate D2E/DX2 analytically  !
 ! R19   R(13,14)                1.3468         calculate D2E/DX2 analytically  !
 ! R20   R(13,19)                1.0869         calculate D2E/DX2 analytically  !
 ! A1    A(2,1,15)             108.565          calculate D2E/DX2 analytically  !
 ! A2    A(2,1,16)             109.5661         calculate D2E/DX2 analytically  !
 ! A3    A(2,1,17)             108.5658         calculate D2E/DX2 analytically  !
 ! A4    A(15,1,16)            109.7777         calculate D2E/DX2 analytically  !
 ! A5    A(15,1,17)            110.5579         calculate D2E/DX2 analytically  !
 ! A6    A(16,1,17)            109.7796         calculate D2E/DX2 analytically  !
 ! A7    A(1,2,3)              126.6264         calculate D2E/DX2 analytically  !
 ! A8    A(1,2,5)              125.7043         calculate D2E/DX2 analytically  !
 ! A9    A(3,2,5)              107.6694         calculate D2E/DX2 analytically  !
 ! A10   A(2,3,4)              111.7292         calculate D2E/DX2 analytically  !
 ! A11   A(2,3,18)             122.8702         calculate D2E/DX2 analytically  !
 ! A12   A(4,3,18)             125.4007         calculate D2E/DX2 analytically  !
 ! A13   A(3,4,6)              105.1047         calculate D2E/DX2 analytically  !
 ! A14   A(2,5,6)              104.8951         calculate D2E/DX2 analytically  !
 ! A15   A(2,5,14)             127.662          calculate D2E/DX2 analytically  !
 ! A16   A(6,5,14)             127.4429         calculate D2E/DX2 analytically  !
 ! A17   A(4,6,5)              110.6017         calculate D2E/DX2 analytically  !
 ! A18   A(4,6,7)              134.2488         calculate D2E/DX2 analytically  !
 ! A19   A(5,6,7)              115.1495         calculate D2E/DX2 analytically  !
 ! A20   A(6,7,8)              122.7995         calculate D2E/DX2 analytically  !
 ! A21   A(6,7,12)             120.8248         calculate D2E/DX2 analytically  !
 ! A22   A(8,7,12)             116.3756         calculate D2E/DX2 analytically  !
 ! A23   A(7,8,9)              107.7133         calculate D2E/DX2 analytically  !
 ! A24   A(7,8,10)             108.4202         calculate D2E/DX2 analytically  !
 ! A25   A(7,8,11)             108.4201         calculate D2E/DX2 analytically  !
 ! A26   A(9,8,10)             104.7643         calculate D2E/DX2 analytically  !
 ! A27   A(9,8,11)             104.7643         calculate D2E/DX2 analytically  !
 ! A28   A(10,8,11)            121.9244         calculate D2E/DX2 analytically  !
 ! A29   A(7,12,13)            117.1786         calculate D2E/DX2 analytically  !
 ! A30   A(12,13,14)           127.7041         calculate D2E/DX2 analytically  !
 ! A31   A(12,13,19)           116.1682         calculate D2E/DX2 analytically  !
 ! A32   A(14,13,19)           116.1278         calculate D2E/DX2 analytically  !
 ! A33   A(5,14,13)            111.7            calculate D2E/DX2 analytically  !
 ! D1    D(15,1,2,3)          -119.8823         calculate D2E/DX2 analytically  !
 ! D2    D(15,1,2,5)            60.1169         calculate D2E/DX2 analytically  !
 ! D3    D(16,1,2,3)            -0.002          calculate D2E/DX2 analytically  !
 ! D4    D(16,1,2,5)           179.9972         calculate D2E/DX2 analytically  !
 ! D5    D(17,1,2,3)           119.8811         calculate D2E/DX2 analytically  !
 ! D6    D(17,1,2,5)           -60.1197         calculate D2E/DX2 analytically  !
 ! D7    D(1,2,3,4)            179.9986         calculate D2E/DX2 analytically  !
 ! D8    D(1,2,3,18)            -0.0022         calculate D2E/DX2 analytically  !
 ! D9    D(5,2,3,4)             -0.0007         calculate D2E/DX2 analytically  !
 ! D10   D(5,2,3,18)           179.9985         calculate D2E/DX2 analytically  !
 ! D11   D(1,2,5,6)           -179.9988         calculate D2E/DX2 analytically  !
 ! D12   D(1,2,5,14)             0.0012         calculate D2E/DX2 analytically  !
 ! D13   D(3,2,5,6)              0.0005         calculate D2E/DX2 analytically  !
 ! D14   D(3,2,5,14)          -179.9995         calculate D2E/DX2 analytically  !
 ! D15   D(2,3,4,6)              0.0006         calculate D2E/DX2 analytically  !
 ! D16   D(18,3,4,6)          -179.9985         calculate D2E/DX2 analytically  !
 ! D17   D(3,4,6,5)             -0.0003         calculate D2E/DX2 analytically  !
 ! D18   D(3,4,6,7)            179.9998         calculate D2E/DX2 analytically  !
 ! D19   D(2,5,6,4)             -0.0001         calculate D2E/DX2 analytically  !
 ! D20   D(2,5,6,7)            179.9998         calculate D2E/DX2 analytically  !
 ! D21   D(14,5,6,4)           179.9998         calculate D2E/DX2 analytically  !
 ! D22   D(14,5,6,7)            -0.0002         calculate D2E/DX2 analytically  !
 ! D23   D(2,5,14,13)          179.9998         calculate D2E/DX2 analytically  !
 ! D24   D(6,5,14,13)           -0.0002         calculate D2E/DX2 analytically  !
 ! D25   D(4,6,7,8)              0.0021         calculate D2E/DX2 analytically  !
 ! D26   D(4,6,7,12)          -179.9997         calculate D2E/DX2 analytically  !
 ! D27   D(5,6,7,8)           -179.9978         calculate D2E/DX2 analytically  !
 ! D28   D(5,6,7,12)             0.0003         calculate D2E/DX2 analytically  !
 ! D29   D(6,7,8,9)              0.0016         calculate D2E/DX2 analytically  !
 ! D30   D(6,7,8,10)          -112.8501         calculate D2E/DX2 analytically  !
 ! D31   D(6,7,8,11)           112.8532         calculate D2E/DX2 analytically  !
 ! D32   D(12,7,8,9)          -179.9966         calculate D2E/DX2 analytically  !
 ! D33   D(12,7,8,10)           67.1517         calculate D2E/DX2 analytically  !
 ! D34   D(12,7,8,11)          -67.145          calculate D2E/DX2 analytically  !
 ! D35   D(6,7,12,13)            0.0            calculate D2E/DX2 analytically  !
 ! D36   D(8,7,12,13)          179.9982         calculate D2E/DX2 analytically  !
 ! D37   D(7,12,13,14)          -0.0005         calculate D2E/DX2 analytically  !
 ! D38   D(7,12,13,19)         179.9993         calculate D2E/DX2 analytically  !
 ! D39   D(12,13,14,5)           0.0006         calculate D2E/DX2 analytically  !
 ! D40   D(19,13,14,5)        -179.9992         calculate D2E/DX2 analytically  !
 --------------------------------------------------------------------------------
 Trust Radius=3.00D-01 FncErr=1.00D-07 GrdErr=1.00D-06 EigMax=2.50D+02 EigMin=1.00D-04
 Number of steps in this run=    103 maximum allowed number of steps=    114.
 GradGradGradGradGradGradGradGradGradGradGradGradGradGradGradGradGradGrad

                          Input orientation:                          
 ---------------------------------------------------------------------
 Center     Atomic      Atomic             Coordinates (Angstroms)
 Number     Number       Type             X           Y           Z
 ---------------------------------------------------------------------
      1          6           0       -2.989965   -0.719259    0.066595
      2          7           0       -1.683397   -0.206231    0.383585
      3          6           0       -1.337814    0.517065    1.490907
      4          7           0       -0.059638    0.837472    1.484982
      5          6           0       -0.559899   -0.359422   -0.379016
      6          6           0        0.439905    0.297042    0.323229
      7          6           0        1.687583    0.272415   -0.270227
      8         16           0        3.092417    1.037488    0.442581
      9          9           0        2.635825    1.708373    1.812791
     10          8           0        3.486048    2.151053   -0.401440
     11          8           0        4.030756    0.000880    0.832846
     12          7           0        1.882718   -0.363292   -1.463621
     13          6           0        0.814182   -0.956683   -2.025687
     14          7           0       -0.445733   -1.003963   -1.552060
     15          1           0       -2.927313   -1.807773   -0.009680
     16          1           0       -3.692995   -0.443749    0.856800
     17          1           0       -3.312922   -0.285897   -0.883409
     18          1           0       -2.047680    0.781907    2.265401
     19          1           0        0.987919   -1.457424   -2.974575
 ---------------------------------------------------------------------
                    Distance matrix (angstroms):
                    1          2          3          4          5
     1  C    0.000000
     2  N    1.439027   0.000000
     3  C    2.507342   1.367021   0.000000
     4  N    3.608608   2.222383   1.317737   0.000000
     5  C    2.496653   1.366484   2.206806   2.270970   0.000000
     6  C    3.586466   2.182966   2.138263   1.375237   1.386975
     7  C    4.793362   3.466999   3.509199   2.540242   2.337141
     8  S    6.342152   4.935456   4.582224   3.325967   3.995722
     9  F    6.371194   4.935992   4.160845   2.851569   4.392317
    10  O    7.099049   5.735523   5.433281   4.225633   4.761584
    11  O    7.099033   5.735528   5.433327   4.225694   4.761569
    12  N    5.119699   4.019206   4.458261   3.729455   2.672594
    13  C    4.348051   3.550447   4.378293   4.038236   2.226285
    14  N    3.028897   2.432059   3.516956   3.572614   1.343316
    15  H    1.092981   2.065653   3.191103   4.177906   2.799782
    16  H    1.092968   2.078179   2.621475   3.903514   3.369071
    17  H    1.092983   2.065665   3.191108   4.177929   2.799813
    18  H    2.824208   2.156467   1.083463   2.136458   3.241770
    19  H    5.061341   4.469749   5.408158   5.123629   3.215319
                    6          7          8          9         10
     6  C    0.000000
     7  C    1.381845   0.000000
     8  S    2.756506   1.751283   0.000000
     9  F    3.005448   2.701870   1.592494   0.000000
    10  O    3.638886   2.604031   1.451670   2.412812   0.000000
    11  O    3.638906   2.604028   1.451669   2.412811   2.538388
    12  N    2.389682   1.366158   2.656908   3.948904   3.165569
    13  C    2.688739   2.314120   3.906331   5.015458   4.408523
    14  N    2.448198   2.797011   4.545835   5.308011   5.170779
    15  H    3.984876   5.068760   6.673620   6.828850   7.546985
    16  H    4.232532   5.543798   6.957547   6.752741   7.736590
    17  H    3.984909   5.068802   6.673677   6.828923   7.238578
    18  H    3.192993   4.543257   5.459724   4.795666   6.293548
    19  H    3.775445   3.285631   4.725511   5.971326   5.087512
                   11         12         13         14         15
    11  O    0.000000
    12  N    3.165509   0.000000
    13  C    4.408456   1.345288   0.000000
    14  N    5.170729   2.416601   1.346827   0.000000
    15  H    7.238495   5.228467   4.334446   3.030394   0.000000
    16  H    7.736575   6.039817   5.374614   4.081808   1.788188
    17  H    7.547011   5.228509   4.334482   3.030426   1.796720
    18  H    6.293616   5.537609   5.443013   4.508722   3.557555
    19  H    5.087432   2.069003   1.086883   2.069912   4.923656
                   16         17         18         19
    16  H    0.000000
    17  H    1.788212   0.000000
    18  H    2.488665   3.557535   0.000000
    19  H    6.133346   4.923686   6.456533   0.000000
 Stoichiometry    C6H5FN4O2S
 Framework group  C1[X(C6H5FN4O2S)]
 Deg. of freedom    51
 Full point group                 C1      NOp   1
 Largest Abelian subgroup         C1      NOp   1
 Largest concise Abelian subgroup C1      NOp   1
                         Standard orientation:                         
 ---------------------------------------------------------------------
 Center     Atomic      Atomic             Coordinates (Angstroms)
 Number     Number       Type             X           Y           Z
 ---------------------------------------------------------------------
      1          6           0       -4.095207   -0.352073   -0.000042
      2          7           0       -2.673200   -0.572743    0.000001
      3          6           0       -2.035525   -1.781923    0.000027
      4          7           0       -0.725192   -1.642438    0.000034
      5          6           0       -1.714991    0.401480    0.000007
      6          6           0       -0.509383   -0.284239    0.000025
      7          6           0        0.619502    0.512701    0.000030
      8         16           0        2.243491   -0.142778   -0.000004
      9          9           0        2.125007   -1.730858   -0.000081
     10          8           0        2.869048    0.181465    1.269204
     11          8           0        2.869041    0.181588   -1.269184
     12          7           0        0.514800    1.874842    0.000024
     13          6           0       -0.725525    2.395798    0.000012
     14          7           0       -1.897596    1.732327   -0.000003
     15          1           0       -4.359890    0.211386   -0.898409
     16          1           0       -4.614832   -1.313619   -0.000086
     17          1           0       -4.359960    0.211380    0.898312
     18          1           0       -2.566156   -2.726552    0.000052
     19          1           0       -0.789701    3.480784    0.000020
 ---------------------------------------------------------------------
 Rotational constants (GHZ):           1.3256231           0.4633513           0.3700709
 Standard basis: 6-31G(d) (6D, 7F)
 There are   224 symmetry adapted cartesian basis functions of A   symmetry.
 There are   224 symmetry adapted basis functions of A   symmetry.
   224 basis functions,   436 primitive gaussians,   224 cartesian basis functions
    55 alpha electrons       55 beta electrons
       nuclear repulsion energy      1052.3360287993 Hartrees.
 NAtoms=   19 NActive=   19 NUniq=   19 SFac= 1.00D+00 NAtFMM=   60 NAOKFM=F Big=F
 Integral buffers will be    131072 words long.
 Raffenetti 2 integral format.
 Two-electron integral symmetry is turned on.
 R6APFD:  NTU= -4 IXU= 1 FactS= 1.050
 Nuclear repulsion after empirical dispersion term =     1052.3192234223 Hartrees.
 One-electron integrals computed using PRISM.
 NBasis=   224 RedAO= T EigKep=  7.69D-04  NBF=   224
 NBsUse=   224 1.00D-06 EigRej= -1.00D+00 NBFU=   224
 ExpMin= 1.17D-01 ExpMax= 2.19D+04 ExpMxC= 3.30D+03 IAcc=3 IRadAn=         5 AccDes= 0.00D+00
 Harris functional with IExCor= 3731 and IRadAn=       5 diagonalized for initial guess.
 HarFok:  IExCor= 3731 AccDes= 0.00D+00 IRadAn=         5 IDoV= 1 UseB2=F ITyADJ=14
 ICtDFT=  3500011 ScaDFX=  1.000000  1.000000  1.000000  1.000000
 FoFCou: FMM=F IPFlag=           0 FMFlag=      100000 FMFlg1=           0
         NFxFlg=           0 DoJE=T BraDBF=F KetDBF=T FulRan=T
         wScrn=  0.000000 ICntrl=       500 IOpCl=  0 I1Cent=   200000004 NGrid=           0
         NMat0=    1 NMatS0=      1 NMatT0=    0 NMatD0=    1 NMtDS0=    0 NMtDT0=    0
 Petite list used in FoFCou.
 Keep R1 ints in memory in canonical form, NReq=323229189.
 Requested convergence on RMS density matrix=1.00D-08 within  32 cycles.
 Requested convergence on MAX density matrix=1.00D-06.
 Requested convergence on             energy=1.00D-06.
 No special actions if energy rises.
 Integral accuracy reduced to 1.0D-05 until final iterations.
 Initial convergence to 1.0D-05 achieved.  Increase integral accuracy.
 SCF Done:  E(RAPFD) =  -1098.41731990     A.U. after   15 cycles
            NFock= 15  Conv=0.47D-08     -V/T= 2.0067
 QCSCF skips out because SCF is already converged.
 DoSCS=F DFT=T ScalE2(SS,OS)=  1.000000  1.000000
 Range of M.O.s used for correlation:     1   224
 NBasis=   224 NAE=    55 NBE=    55 NFC=     0 NFV=     0
 NROrb=    224 NOA=    55 NOB=    55 NVA=   169 NVB=   169

 **** Warning!!: The largest alpha MO coefficient is  0.10466414D+02

 R6APFD:  NTU= -4 IXU= 1 FactS= 1.050
 Symmetrizing basis deriv contribution to polar:
 IMax=3 JMax=2 DiffMx= 0.00D+00
 G2DrvN: will do    20 centers at a time, making    1 passes.
 Calling FoFCou, ICntrl=  3107 FMM=F I1Cent=   0 AccDes= 0.00D+00.
 End of G2Drv F.D. properties file   721 does not exist.
 End of G2Drv F.D. properties file   722 does not exist.
 End of G2Drv F.D. properties file   788 does not exist.
          IDoAtm=1111111111111111111
          Differentiating once with respect to nuclear coordinates.
 Keep R1 ints in memory in canonical form, NReq=323237179.
          There are    60 degrees of freedom in the 1st order CPHF.  IDoFFX=6 NUNeed=     0.
     54 vectors produced by pass  0 Test12= 1.55D-14 1.67D-09 XBig12= 3.66D-01 2.12D-01.
 AX will form    54 AO Fock derivatives at one time.
     54 vectors produced by pass  1 Test12= 1.55D-14 1.67D-09 XBig12= 4.26D-02 4.94D-02.
     54 vectors produced by pass  2 Test12= 1.55D-14 1.67D-09 XBig12= 1.96D-03 1.03D-02.
     54 vectors produced by pass  3 Test12= 1.55D-14 1.67D-09 XBig12= 1.63D-05 8.60D-04.
     54 vectors produced by pass  4 Test12= 1.55D-14 1.67D-09 XBig12= 3.78D-08 3.82D-05.
     52 vectors produced by pass  5 Test12= 1.55D-14 1.67D-09 XBig12= 6.63D-11 1.58D-06.
     31 vectors produced by pass  6 Test12= 1.55D-14 1.67D-09 XBig12= 9.65D-14 8.41D-08.
      1 vectors produced by pass  7 Test12= 1.55D-14 1.67D-09 XBig12= 1.53D-16 3.48D-09.
 InvSVY:  IOpt=1 It=  1 EMax= 3.89D-16
 Solved reduced A of dimension   354 with    60 vectors.
 End of Minotr F.D. properties file   721 does not exist.
 End of Minotr F.D. properties file   722 does not exist.
 End of Minotr F.D. properties file   788 does not exist.

 **********************************************************************

            Population analysis using the SCF density.

 **********************************************************************

 Orbital symmetries:
       Occupied  (A) (A) (A) (A) (A) (A) (A) (A) (A) (A) (A) (A)
                 (A) (A) (A) (A) (A) (A) (A) (A) (A) (A) (A) (A)
                 (A) (A) (A) (A) (A) (A) (A) (A) (A) (A) (A) (A)
                 (A) (A) (A) (A) (A) (A) (A) (A) (A) (A) (A) (A)
                 (A) (A) (A) (A) (A) (A) (A)
       Virtual   (A) (A) (A) (A) (A) (A) (A) (A) (A) (A) (A) (A)
                 (A) (A) (A) (A) (A) (A) (A) (A) (A) (A) (A) (A)
                 (A) (A) (A) (A) (A) (A) (A) (A) (A) (A) (A) (A)
                 (A) (A) (A) (A) (A) (A) (A) (A) (A) (A) (A) (A)
                 (A) (A) (A) (A) (A) (A) (A) (A) (A) (A) (A) (A)
                 (A) (A) (A) (A) (A) (A) (A) (A) (A) (A) (A) (A)
                 (A) (A) (A) (A) (A) (A) (A) (A) (A) (A) (A) (A)
                 (A) (A) (A) (A) (A) (A) (A) (A) (A) (A) (A) (A)
                 (A) (A) (A) (A) (A) (A) (A) (A) (A) (A) (A) (A)
                 (A) (A) (A) (A) (A) (A) (A) (A) (A) (A) (A) (A)
                 (A) (A) (A) (A) (A) (A) (A) (A) (A) (A) (A) (A)
                 (A) (A) (A) (A) (A) (A) (A) (A) (A) (A) (A) (A)
                 (A) (A) (A) (A) (A) (A) (A) (A) (A) (A) (A) (A)
                 (A) (A) (A) (A) (A) (A) (A) (A) (A) (A) (A) (A)
                 (A)
 The electronic state is 1-A.
 Alpha  occ. eigenvalues --  -89.23770 -24.79257 -19.20985 -19.20984 -14.47640
 Alpha  occ. eigenvalues --  -14.41658 -14.41644 -14.39477 -10.32800 -10.32302
 Alpha  occ. eigenvalues --  -10.32232 -10.31311 -10.28833 -10.28749  -8.21589
 Alpha  occ. eigenvalues --   -6.16542  -6.16140  -6.16125  -1.28445  -1.12940
 Alpha  occ. eigenvalues --   -1.10289  -1.04598  -1.02887  -0.96661  -0.93204
 Alpha  occ. eigenvalues --   -0.84302  -0.79090  -0.75602  -0.69911  -0.69576
 Alpha  occ. eigenvalues --   -0.64070  -0.60140  -0.58612  -0.56259  -0.53835
 Alpha  occ. eigenvalues --   -0.53336  -0.51343  -0.50550  -0.50201  -0.47927
 Alpha  occ. eigenvalues --   -0.47595  -0.45622  -0.45173  -0.44919  -0.42542
 Alpha  occ. eigenvalues --   -0.38478  -0.38379  -0.36226  -0.35472  -0.33976
 Alpha  occ. eigenvalues --   -0.32694  -0.32426  -0.31067  -0.29271  -0.29012
 Alpha virt. eigenvalues --   -0.09353  -0.03760   0.00470   0.00839   0.06709
 Alpha virt. eigenvalues --    0.07952   0.10045   0.10266   0.11193   0.12333
 Alpha virt. eigenvalues --    0.14170   0.14668   0.14930   0.18251   0.18542
 Alpha virt. eigenvalues --    0.21636   0.23454   0.24698   0.27450   0.29668
 Alpha virt. eigenvalues --    0.31647   0.33026   0.34283   0.37814   0.38943
 Alpha virt. eigenvalues --    0.40058   0.42578   0.43566   0.46233   0.47618
 Alpha virt. eigenvalues --    0.50930   0.52921   0.55456   0.56413   0.57837
 Alpha virt. eigenvalues --    0.59181   0.59335   0.60656   0.63393   0.64496
 Alpha virt. eigenvalues --    0.66447   0.67195   0.69022   0.72028   0.72529
 Alpha virt. eigenvalues --    0.74370   0.77292   0.78040   0.79284   0.80710
 Alpha virt. eigenvalues --    0.80841   0.81115   0.82007   0.83587   0.84082
 Alpha virt. eigenvalues --    0.84636   0.86924   0.87878   0.89256   0.89485
 Alpha virt. eigenvalues --    0.90362   0.92317   0.93035   0.94655   0.98741
 Alpha virt. eigenvalues --    0.99786   1.03204   1.03321   1.04445   1.05686
 Alpha virt. eigenvalues --    1.10578   1.12302   1.16162   1.16623   1.17862
 Alpha virt. eigenvalues --    1.18843   1.20329   1.24762   1.27123   1.28193
 Alpha virt. eigenvalues --    1.28625   1.29940   1.32834   1.34144   1.38329
 Alpha virt. eigenvalues --    1.40427   1.42293   1.43482   1.45456   1.45666
 Alpha virt. eigenvalues --    1.48521   1.52956   1.55655   1.56776   1.59026
 Alpha virt. eigenvalues --    1.60957   1.63650   1.70117   1.72309   1.77115
 Alpha virt. eigenvalues --    1.78756   1.79218   1.79336   1.80567   1.81505
 Alpha virt. eigenvalues --    1.83166   1.83917   1.86068   1.86485   1.88842
 Alpha virt. eigenvalues --    1.89675   1.91915   1.93219   1.94805   1.96239
 Alpha virt. eigenvalues --    1.96629   2.03432   2.03586   2.06683   2.12978
 Alpha virt. eigenvalues --    2.13316   2.14568   2.17426   2.19660   2.20483
 Alpha virt. eigenvalues --    2.21134   2.21368   2.23000   2.24877   2.25276
 Alpha virt. eigenvalues --    2.30306   2.31062   2.33103   2.35454   2.42024
 Alpha virt. eigenvalues --    2.46601   2.49191   2.52089   2.56145   2.58574
 Alpha virt. eigenvalues --    2.59330   2.64304   2.66684   2.70087   2.71635
 Alpha virt. eigenvalues --    2.71852   2.81018   2.81704   2.84256   2.85455
 Alpha virt. eigenvalues --    2.96219   3.00783   3.12387   3.22851   3.36479
 Alpha virt. eigenvalues --    3.78796   3.85634   3.96079   3.98664   4.00804
 Alpha virt. eigenvalues --    4.08041   4.14437   4.20404   4.27287   4.32268
 Alpha virt. eigenvalues --    4.37241   4.41004   4.59443   4.64542
          Condensed to atoms (all electrons):
               1          2          3          4          5          6
     1  C    5.064154   0.237399  -0.034742   0.004935  -0.040019   0.010796
     2  N    0.237399   6.986575   0.357237  -0.067382   0.315936  -0.089235
     3  C   -0.034742   0.357237   4.732765   0.502055  -0.094990  -0.093853
     4  N    0.004935  -0.067382   0.502055   6.857530  -0.081651   0.388081
     5  C   -0.040019   0.315936  -0.094990  -0.081651   4.718113   0.383568
     6  C    0.010796  -0.089235  -0.093853   0.388081   0.383568   4.927394
     7  C   -0.000113   0.009257   0.009141  -0.072910  -0.077899   0.355336
     8  S   -0.000004  -0.000018  -0.000440   0.006837   0.002104  -0.022801
     9  F    0.000000  -0.000003   0.000283   0.000370   0.000167  -0.000934
    10  O   -0.000000   0.000000  -0.000002  -0.000071  -0.000133   0.000285
    11  O   -0.000000   0.000000  -0.000002  -0.000071  -0.000133   0.000285
    12  N    0.000036   0.000515  -0.000122   0.003343  -0.040375  -0.016288
    13  C   -0.000059   0.003226  -0.000120   0.000413  -0.050230  -0.039218
    14  N    0.003798  -0.074448   0.002997   0.006469   0.390871  -0.052706
    15  H    0.382165  -0.038583   0.001091  -0.000147  -0.002688  -0.000011
    16  H    0.379224  -0.031758  -0.002520   0.000160   0.003891  -0.000082
    17  H    0.382165  -0.038583   0.001091  -0.000147  -0.002688  -0.000011
    18  H    0.000515  -0.051872   0.384307  -0.033679   0.003824   0.004423
    19  H   -0.000007  -0.000091   0.000004   0.000012   0.004671   0.000336
               7          8          9         10         11         12
     1  C   -0.000113  -0.000004   0.000000  -0.000000  -0.000000   0.000036
     2  N    0.009257  -0.000018  -0.000003   0.000000   0.000000   0.000515
     3  C    0.009141  -0.000440   0.000283  -0.000002  -0.000002  -0.000122
     4  N   -0.072910   0.006837   0.000370  -0.000071  -0.000071   0.003343
     5  C   -0.077899   0.002104   0.000167  -0.000133  -0.000133  -0.040375
     6  C    0.355336  -0.022801  -0.000934   0.000285   0.000285  -0.016288
     7  C    5.482157   0.166276  -0.021067  -0.050850  -0.050851   0.369949
     8  S    0.166276  13.471684   0.207999   0.465917   0.465916  -0.023979
     9  F   -0.021067   0.207999   9.153881  -0.036956  -0.036956   0.000446
    10  O   -0.050850   0.465917  -0.036956   8.131970  -0.041775  -0.002041
    11  O   -0.050851   0.465916  -0.036956  -0.041775   8.131969  -0.002041
    12  N    0.369949  -0.023979   0.000446  -0.002041  -0.002041   6.788929
    13  C   -0.064720   0.000892  -0.000012  -0.000057  -0.000057   0.450889
    14  N   -0.033265   0.000124   0.000000   0.000003   0.000003  -0.049481
    15  H    0.000000   0.000000  -0.000000  -0.000000  -0.000000  -0.000001
    16  H    0.000006  -0.000000   0.000000   0.000000   0.000000   0.000000
    17  H    0.000000   0.000000  -0.000000  -0.000000  -0.000000  -0.000001
    18  H   -0.000121  -0.000014   0.000002  -0.000000  -0.000000   0.000002
    19  H    0.005767  -0.000193   0.000000   0.000001   0.000001  -0.059103
              13         14         15         16         17         18
     1  C   -0.000059   0.003798   0.382165   0.379224   0.382165   0.000515
     2  N    0.003226  -0.074448  -0.038583  -0.031758  -0.038583  -0.051872
     3  C   -0.000120   0.002997   0.001091  -0.002520   0.001091   0.384307
     4  N    0.000413   0.006469  -0.000147   0.000160  -0.000147  -0.033679
     5  C   -0.050230   0.390871  -0.002688   0.003891  -0.002688   0.003824
     6  C   -0.039218  -0.052706  -0.000011  -0.000082  -0.000011   0.004423
     7  C   -0.064720  -0.033265   0.000000   0.000006   0.000000  -0.000121
     8  S    0.000892   0.000124   0.000000  -0.000000   0.000000  -0.000014
     9  F   -0.000012   0.000000  -0.000000   0.000000  -0.000000   0.000002
    10  O   -0.000057   0.000003  -0.000000   0.000000  -0.000000  -0.000000
    11  O   -0.000057   0.000003  -0.000000   0.000000  -0.000000  -0.000000
    12  N    0.450889  -0.049481  -0.000001   0.000000  -0.000001   0.000002
    13  C    4.720075   0.419949   0.000013   0.000002   0.000013   0.000004
    14  N    0.419949   6.928893   0.002124   0.000148   0.002123  -0.000038
    15  H    0.000013   0.002124   0.483871  -0.024409  -0.027707  -0.000077
    16  H    0.000002   0.000148  -0.024409   0.492765  -0.024407   0.002826
    17  H    0.000013   0.002123  -0.027707  -0.024407   0.483870  -0.000077
    18  H    0.000004  -0.000038  -0.000077   0.002826  -0.000077   0.465929
    19  H    0.400639  -0.062270   0.000001  -0.000000   0.000001  -0.000000
              19
     1  C   -0.000007
     2  N   -0.000091
     3  C    0.000004
     4  N    0.000012
     5  C    0.004671
     6  C    0.000336
     7  C    0.005767
     8  S   -0.000193
     9  F    0.000000
    10  O    0.000001
    11  O    0.000001
    12  N   -0.059103
    13  C    0.400639
    14  N   -0.062270
    15  H    0.000001
    16  H   -0.000000
    17  H    0.000001
    18  H   -0.000000
    19  H    0.498885
 Mulliken charges:
               1
     1  C   -0.390243
     2  N   -0.518172
     3  C    0.235820
     4  N   -0.514146
     5  C    0.567659
     6  C    0.244637
     7  C   -0.026093
     8  S    1.259701
     9  F   -0.267223
    10  O   -0.466291
    11  O   -0.466290
    12  N   -0.420679
    13  C    0.158357
    14  N   -0.485295
    15  H    0.224358
    16  H    0.204152
    17  H    0.224358
    18  H    0.224045
    19  H    0.211347
 Sum of Mulliken charges =  -0.00000
 Mulliken charges with hydrogens summed into heavy atoms:
               1
     1  C    0.262625
     2  N   -0.518172
     3  C    0.459865
     4  N   -0.514146
     5  C    0.567659
     6  C    0.244637
     7  C   -0.026093
     8  S    1.259701
     9  F   -0.267223
    10  O   -0.466291
    11  O   -0.466290
    12  N   -0.420679
    13  C    0.369703
    14  N   -0.485295
 APT charges:
               1
     1  C   -1.558848
     2  N   -0.058291
     3  C   -0.092011
     4  N   -0.701149
     5  C    0.159252
     6  C   -0.182644
     7  C   -0.094078
     8  S    0.046996
     9  F   -0.049485
    10  O    0.022194
    11  O    0.022193
    12  N   -0.337538
    13  C   -0.410351
    14  N   -0.127532
    15  H    0.492321
    16  H    0.746619
    17  H    0.492347
    18  H    0.828053
    19  H    0.801954
 Sum of APT charges =  -0.00000
 APT charges with hydrogens summed into heavy atoms:
               1
     1  C    0.172439
     2  N   -0.058291
     3  C    0.736043
     4  N   -0.701149
     5  C    0.159252
     6  C   -0.182644
     7  C   -0.094078
     8  S    0.046996
     9  F   -0.049485
    10  O    0.022194
    11  O    0.022193
    12  N   -0.337538
    13  C    0.391603
    14  N   -0.127532
 Electronic spatial extent (au):  <R**2>=           2866.1321
 Charge=             -0.0000 electrons
 Dipole moment (field-independent basis, Debye):
    X=             -8.9629    Y=             -1.2160    Z=             -0.0001  Tot=              9.0450
 Quadrupole moment (field-independent basis, Debye-Ang):
   XX=            -78.3189   YY=            -81.7278   ZZ=            -88.0970
   XY=              5.5251   XZ=              0.0000   YZ=              0.0003
 Traceless Quadrupole moment (field-independent basis, Debye-Ang):
   XX=              4.3957   YY=              0.9868   ZZ=             -5.3824
   XY=              5.5251   XZ=              0.0000   YZ=              0.0003
 Octapole moment (field-independent basis, Debye-Ang**2):
  XXX=            -83.3409  YYY=             -6.3534  ZZZ=             -0.0010  XYY=             -7.9533
  XXY=            -42.5171  XXZ=             -0.0013  XZZ=             -4.1878  YZZ=             -4.5746
  YYZ=              0.0001  XYZ=              0.0005
 Hexadecapole moment (field-independent basis, Debye-Ang**3):
 XXXX=          -2299.9625 YYYY=           -760.9727 ZZZZ=           -193.5118 XXXY=             56.7232
 XXXZ=              0.0010 YYYX=             11.2935 YYYZ=              0.0007 ZZZX=             -0.0012
 ZZZY=              0.0009 XXYY=           -535.0238 XXZZ=           -480.7720 YYZZ=           -177.5864
 XXYZ=              0.0029 YYXZ=             -0.0008 ZZXY=            -13.6952
 N-N= 1.052319223422D+03 E-N=-4.686758324295D+03  KE= 1.091138431393D+03
  Exact polarizability:   0.000   0.000   0.000   0.000   0.000   0.000
 Approx polarizability: 215.242  17.892 206.792   0.001  -0.001 101.762
 R6APFD:  NTU= -4 IXU= 1 FactS= 1.050
 Calling FoFJK, ICntrl=    100147 FMM=F ISym2X=0 I1Cent= 0 IOpClX= 0 NMat=1 NMatS=1 NMatT=0.
 ***** Axes restored to original set *****
 -------------------------------------------------------------------
 Center     Atomic                   Forces (Hartrees/Bohr)
 Number     Number              X              Y              Z
 -------------------------------------------------------------------
      1        6          -0.001125222   -0.002300709   -0.003508964
      2        7          -0.014239133   -0.002925659    0.001185452
      3        6           0.030122937   -0.000332209   -0.013870338
      4        7          -0.004169919    0.005295377    0.011060806
      5        6          -0.016673843   -0.017323378   -0.022816340
      6        6           0.005226897    0.011754537    0.018167073
      7        6          -0.018540404   -0.020558706   -0.027622788
      8       16           0.054509836    0.009701002   -0.007159215
      9        9          -0.014696819   -0.005263698   -0.002683487
     10        8          -0.005976920   -0.008231865    0.004246628
     11        8          -0.009305206    0.004906088   -0.003295204
     12        7          -0.002544736    0.015196371    0.027592072
     13        6          -0.005486252    0.005045407    0.011207531
     14        7           0.007251194    0.008340885    0.011328617
     15        1          -0.003850298    0.000087328   -0.002168731
     16        1           0.001383430   -0.000137871   -0.000854469
     17        1          -0.003011165   -0.003223972   -0.000264401
     18        1           0.000095015   -0.000773645   -0.001387503
     19        1           0.001030608    0.000744718    0.000843262
 -------------------------------------------------------------------
 Cartesian Forces:  Max     0.054509836 RMS     0.013052192
 FormGI is forming the generalized inverse of G from B-inverse, IUseBI=4.

 GradGradGradGradGradGradGradGradGradGradGradGradGradGradGradGradGradGrad
 Berny optimization.
 Internal  Forces:  Max     0.037633914 RMS     0.008444640
 Search for a local minimum.
 Step number   1 out of a maximum of  103
 All quantities printed in internal units (Hartrees-Bohrs-Radians)
 Mixed Optimization -- RFO/linear search
 Second derivative matrix not updated -- analytic derivatives used.
 ITU=  0
     Eigenvalues ---   -0.00193  -0.00034   0.00567   0.01351   0.01518
     Eigenvalues ---    0.01841   0.02282   0.02657   0.03054   0.04210
     Eigenvalues ---    0.05235   0.05770   0.06201   0.06203   0.11352
     Eigenvalues ---    0.13197   0.14140   0.14244   0.15181   0.15841
     Eigenvalues ---    0.15859   0.16422   0.17922   0.18774   0.19161
     Eigenvalues ---    0.20012   0.21469   0.22318   0.24747   0.25127
     Eigenvalues ---    0.26509   0.27632   0.30843   0.33417   0.34935
     Eigenvalues ---    0.35119   0.35537   0.36590   0.37620   0.38158
     Eigenvalues ---    0.39006   0.41469   0.41924   0.44449   0.45941
     Eigenvalues ---    0.48827   0.52088   0.54389   0.58311   0.66270
     Eigenvalues ---    0.66322
 RFO step:  Lambda=-2.07619808D-02 EMin=-1.92588785D-03
 Linear search not attempted -- first point.
 Iteration  1 RMS(Cart)=  0.12147430 RMS(Int)=  0.02982659
 Iteration  2 RMS(Cart)=  0.05157689 RMS(Int)=  0.00242942
 Iteration  3 RMS(Cart)=  0.00252675 RMS(Int)=  0.00046209
 Iteration  4 RMS(Cart)=  0.00000630 RMS(Int)=  0.00046208
 Iteration  5 RMS(Cart)=  0.00000001 RMS(Int)=  0.00046208
 Variable       Old X    -DE/DX   Delta X   Delta X   Delta X     New X
                                 (Linear)    (Quad)   (Total)
    R1        2.71937   0.00948   0.00000   0.01328   0.01328   2.73265
    R2        2.06543  -0.00016   0.00000  -0.00194  -0.00194   2.06349
    R3        2.06541  -0.00154   0.00000  -0.00331  -0.00331   2.06210
    R4        2.06544  -0.00016   0.00000   0.00069   0.00069   2.06613
    R5        2.58329   0.00694   0.00000   0.00852   0.00871   2.59201
    R6        2.58228  -0.00498   0.00000  -0.00016  -0.00011   2.58217
    R7        2.49016  -0.00691   0.00000  -0.02055  -0.02046   2.46970
    R8        2.04745  -0.00124   0.00000  -0.00034  -0.00034   2.04711
    R9        2.59882  -0.00424   0.00000  -0.00177  -0.00192   2.59690
   R10        2.62100   0.02225   0.00000   0.05288   0.05270   2.67371
   R11        2.53850  -0.02066   0.00000  -0.03506  -0.03513   2.50337
   R12        2.61131   0.00694   0.00000   0.02251   0.02258   2.63389
   R13        3.30944   0.01655   0.00000   0.07401   0.07401   3.38346
   R14        2.58167  -0.03763   0.00000  -0.09197  -0.09190   2.48977
   R15        3.00938  -0.00031   0.00000  -0.00078  -0.00078   3.00860
   R16        2.74326  -0.01040   0.00000  -0.01792  -0.01792   2.72534
   R17        2.74326  -0.01040   0.00000  -0.02214  -0.02214   2.72111
   R18        2.54223  -0.00594   0.00000  -0.01039  -0.01039   2.53183
   R19        2.54513  -0.00883   0.00000  -0.02396  -0.02402   2.52111
   R20        2.05391  -0.00091   0.00000  -0.00174  -0.00174   2.05217
    A1        1.89482   0.00547   0.00000   0.01523   0.01513   1.90995
    A2        1.91229  -0.00262   0.00000  -0.01239  -0.01235   1.89994
    A3        1.89483   0.00547   0.00000   0.03076   0.03067   1.92550
    A4        1.91598  -0.00156   0.00000  -0.00493  -0.00489   1.91109
    A5        1.92960  -0.00506   0.00000  -0.02413  -0.02436   1.90524
    A6        1.91602  -0.00156   0.00000  -0.00400  -0.00396   1.91206
    A7        2.21005   0.01011   0.00000   0.02927   0.02898   2.23903
    A8        2.19395   0.00321   0.00000   0.00595   0.00569   2.19964
    A9        1.87918  -0.01332   0.00000  -0.03522  -0.03511   1.84408
   A10        1.95004   0.02010   0.00000   0.05368   0.05394   2.00399
   A11        2.14449  -0.01107   0.00000  -0.03706  -0.03719   2.10730
   A12        2.18865  -0.00903   0.00000  -0.01663  -0.01676   2.17189
   A13        1.83442  -0.01054   0.00000  -0.02425  -0.02429   1.81014
   A14        1.83076   0.00188   0.00000   0.00609   0.00603   1.83680
   A15        2.22812   0.00252   0.00000  -0.00167  -0.00163   2.22649
   A16        2.22430  -0.00440   0.00000  -0.00442  -0.00441   2.21989
   A17        1.93036   0.00187   0.00000  -0.00030  -0.00060   1.92976
   A18        2.34308   0.00435   0.00000   0.03600   0.03605   2.37913
   A19        2.00974  -0.00622   0.00000  -0.03569  -0.03545   1.97429
   A20        2.14326   0.01141   0.00000   0.04820   0.04757   2.19083
   A21        2.10879   0.00270   0.00000   0.01994   0.01963   2.12842
   A22        2.03114  -0.01411   0.00000  -0.06814  -0.06862   1.96251
   A23        1.87995  -0.03690   0.00000  -0.17376  -0.17449   1.70547
   A24        1.89229  -0.00052   0.00000   0.01367   0.01250   1.90479
   A25        1.89229  -0.00052   0.00000   0.03121   0.03039   1.92268
   A26        1.82848   0.01259   0.00000   0.04212   0.04051   1.86899
   A27        1.82848   0.01259   0.00000   0.04088   0.04063   1.86911
   A28        2.12798   0.00660   0.00000   0.01418   0.01302   2.14100
   A29        2.04515   0.00242   0.00000   0.01713   0.01732   2.06247
   A30        2.22886   0.00722   0.00000  -0.00697  -0.00699   2.22187
   A31        2.02752  -0.00486   0.00000  -0.00210  -0.00209   2.02542
   A32        2.02681  -0.00235   0.00000   0.00907   0.00908   2.03589
   A33        1.94953  -0.00171   0.00000   0.01001   0.00987   1.95940
    D1       -2.09234   0.00015   0.00000  -0.21725  -0.21739  -2.30973
    D2        1.04924   0.00015   0.00000  -0.18124  -0.18088   0.86836
    D3       -0.00003   0.00000   0.00000  -0.22139  -0.22164  -0.22167
    D4        3.14154   0.00000   0.00000  -0.18538  -0.18513   2.95642
    D5        2.09232  -0.00015   0.00000  -0.21503  -0.21538   1.87694
    D6       -1.04929  -0.00015   0.00000  -0.17902  -0.17887  -1.22816
    D7        3.14157   0.00000   0.00000   0.02524   0.02534  -3.11628
    D8       -0.00004   0.00000   0.00000   0.02814   0.02810   0.02806
    D9       -0.00001   0.00000   0.00000  -0.00545  -0.00532  -0.00534
   D10        3.14157   0.00000   0.00000  -0.00255  -0.00256   3.13900
   D11       -3.14157  -0.00000   0.00000  -0.02529  -0.02489   3.11672
   D12        0.00002  -0.00000   0.00000  -0.02213  -0.02154  -0.02152
   D13        0.00001  -0.00000   0.00000   0.00504   0.00487   0.00488
   D14       -3.14158  -0.00000   0.00000   0.00820   0.00822  -3.13336
   D15        0.00001  -0.00000   0.00000   0.00333   0.00317   0.00318
   D16       -3.14157  -0.00000   0.00000   0.00034   0.00029  -3.14128
   D17       -0.00000   0.00000   0.00000  -0.00001   0.00019   0.00019
   D18        3.14159   0.00000   0.00000  -0.00109  -0.00114   3.14045
   D19       -0.00000  -0.00000   0.00000  -0.00319  -0.00330  -0.00330
   D20        3.14159   0.00000   0.00000  -0.00233  -0.00230   3.13929
   D21        3.14159  -0.00000   0.00000  -0.00634  -0.00664   3.13495
   D22       -0.00000   0.00000   0.00000  -0.00548  -0.00563  -0.00564
   D23        3.14159   0.00000   0.00000  -0.00303  -0.00323   3.13836
   D24       -0.00000   0.00000   0.00000   0.00082   0.00083   0.00083
   D25        0.00004  -0.00000   0.00000  -0.05353  -0.05485  -0.05481
   D26       -3.14159   0.00000   0.00000   0.00652   0.00691  -3.13468
   D27       -3.14155  -0.00000   0.00000  -0.05465  -0.05621   3.08543
   D28        0.00001  -0.00000   0.00000   0.00540   0.00555   0.00556
   D29        0.00003   0.00000   0.00000   0.33020   0.33038   0.33041
   D30       -1.96961   0.00394   0.00000   0.36082   0.36006  -1.60954
   D31        1.96966  -0.00394   0.00000   0.30667   0.30594   2.27560
   D32       -3.14153  -0.00000   0.00000   0.27263   0.27369  -2.86784
   D33        1.17202   0.00394   0.00000   0.30326   0.30337   1.47539
   D34       -1.17190  -0.00394   0.00000   0.24911   0.24925  -0.92266
   D35       -0.00000   0.00000   0.00000  -0.00112  -0.00107  -0.00107
   D36        3.14156   0.00000   0.00000   0.05523   0.05331  -3.08832
   D37       -0.00001  -0.00000   0.00000  -0.00439  -0.00482  -0.00483
   D38        3.14158   0.00000   0.00000  -0.00205  -0.00210   3.13948
   D39        0.00001   0.00000   0.00000   0.00447   0.00480   0.00481
   D40       -3.14158  -0.00000   0.00000   0.00213   0.00208  -3.13950
         Item               Value     Threshold  Converged?
 Maximum Force            0.037634     0.000450     NO 
 RMS     Force            0.008445     0.000300     NO 
 Maximum Displacement     0.727071     0.001800     NO 
 RMS     Displacement     0.158975     0.001200     NO 
 Predicted change in Energy=-1.177423D-02
 GradGradGradGradGradGradGradGradGradGradGradGradGradGradGradGradGradGrad

                          Input orientation:                          
 ---------------------------------------------------------------------
 Center     Atomic      Atomic             Coordinates (Angstroms)
 Number     Number       Type             X           Y           Z
 ---------------------------------------------------------------------
      1          6           0       -3.022602   -0.699304    0.023945
      2          7           0       -1.713262   -0.196857    0.376434
      3          6           0       -1.361388    0.576883    1.452948
      4          7           0       -0.098044    0.908034    1.500986
      5          6           0       -0.564075   -0.375041   -0.341015
      6          6           0        0.435558    0.320791    0.378979
      7          6           0        1.693405    0.242472   -0.216300
      8         16           0        3.173274    1.064588    0.366639
      9          9           0        2.687629    1.348197    1.856083
     10          8           0        3.293961    2.342782   -0.290295
     11          8           0        4.262743    0.126570    0.448096
     12          7           0        1.893279   -0.416187   -1.339731
     13          6           0        0.845052   -1.023456   -1.911989
     14          7           0       -0.413776   -1.049974   -1.470956
     15          1           0       -2.951390   -1.762241   -0.215752
     16          1           0       -3.693644   -0.561656    0.873359
     17          1           0       -3.414952   -0.161346   -0.843275
     18          1           0       -2.100012    0.870095    2.189129
     19          1           0        1.048244   -1.554348   -2.837286
 ---------------------------------------------------------------------
                    Distance matrix (angstroms):
                    1          2          3          4          5
     1  C    0.000000
     2  N    1.446054   0.000000
     3  C    2.535810   1.371631   0.000000
     4  N    3.649414   2.257062   1.306907   0.000000
     5  C    2.506531   1.366424   2.181782   2.292691   0.000000
     6  C    3.622915   2.210293   2.109030   1.374221   1.414864
     7  C    4.815119   3.485645   3.497139   2.569305   2.343734
     8  S    6.451173   5.046739   4.688399   3.465945   4.067072
     9  F    6.336854   4.893301   4.141495   2.842501   4.286066
    10  O    7.017977   5.653899   5.275374   4.095471   4.719489
    11  O    7.344265   5.985180   5.730913   4.553651   4.916552
    12  N    5.109369   4.000059   4.402057   3.713301   2.652869
    13  C    4.337241   3.530597   4.330388   4.033420   2.207722
    14  N    3.027156   2.414400   3.477622   3.572943   1.324724
    15  H    1.091953   2.081844   3.283925   4.268388   2.763926
    16  H    1.091214   2.074108   2.659250   3.934748   3.362102
    17  H    1.093347   2.093967   3.167767   4.200120   2.902660
    18  H    2.828817   2.138650   1.083282   2.117275   3.211089
    19  H    5.048716   4.449348   5.362330   5.118389   3.197140
                    6          7          8          9         10
     6  C    0.000000
     7  C    1.393796   0.000000
     8  S    2.836983   1.790448   0.000000
     9  F    2.882572   2.550663   1.592084   0.000000
    10  O    3.564666   2.641696   1.442188   2.442084   0.000000
    11  O    3.832734   2.656381   1.439951   2.440448   2.528904
    12  N    2.371087   1.317528   2.596686   3.735943   3.267282
    13  C    2.687605   2.279833   3.869456   4.818526   4.467505
    14  N    2.454104   2.772145   4.551379   5.141899   5.162564
    15  H    4.020466   5.058951   6.770646   6.765047   7.474033
    16  H    4.251286   5.554662   7.075026   6.733047   7.656139
    17  H    4.068512   5.162507   6.809664   6.841546   7.182337
    18  H    3.163462   4.535417   5.582727   4.822966   6.116477
    19  H    3.773048   3.242586   4.651850   5.756741   5.168949
                   11         12         13         14         15
    11  O    0.000000
    12  N    3.017494   0.000000
    13  C    4.309661   1.339789   0.000000
    14  N    5.190072   2.396124   1.334114   0.000000
    15  H    7.486790   5.152282   4.223268   2.919306   0.000000
    16  H    7.997412   6.011043   5.345201   4.061010   1.782837
    17  H    7.790863   5.337484   4.475826   3.192288   1.780882
    18  H    6.638425   5.482130   5.392412   4.463887   3.665718
    19  H    4.894101   2.062078   1.085960   2.063674   4.786724
                   16         17         18         19
    16  H    0.000000
    17  H    1.784586   0.000000
    18  H    2.514125   3.462429   0.000000
    19  H    6.102444   5.082977   6.407362   0.000000
 Stoichiometry    C6H5FN4O2S
 Framework group  C1[X(C6H5FN4O2S)]
 Deg. of freedom    51
 Full point group                 C1      NOp   1
 Largest Abelian subgroup         C1      NOp   1
 Largest concise Abelian subgroup C1      NOp   1
                         Standard orientation:                         
 ---------------------------------------------------------------------
 Center     Atomic      Atomic             Coordinates (Angstroms)
 Number     Number       Type             X           Y           Z
 ---------------------------------------------------------------------
      1          6           0       -4.144486   -0.228770    0.028772
      2          7           0       -2.726979   -0.512234   -0.008566
      3          6           0       -2.104433   -1.734448   -0.009345
      4          7           0       -0.798494   -1.684916   -0.018123
      5          6           0       -1.721974    0.413550   -0.010726
      6          6           0       -0.523552   -0.338480   -0.019383
      7          6           0        0.621320    0.456439   -0.025647
      8         16           0        2.306128   -0.145383    0.044591
      9          9           0        2.016825   -1.644069   -0.408152
     10          8           0        2.733915   -0.193667    1.421026
     11          8           0        3.095053    0.465546   -0.993591
     12          7           0        0.556479    1.772344   -0.017276
     13          6           0       -0.654257    2.345898   -0.003581
     14          7           0       -1.839275    1.733043   -0.002277
     15          1           0       -4.387170    0.511631   -0.736258
     16          1           0       -4.693861   -1.150577   -0.169237
     17          1           0       -4.427775    0.162543    1.009602
     18          1           0       -2.682768   -2.650425   -0.005569
     19          1           0       -0.667474    3.431743    0.005050
 ---------------------------------------------------------------------
 Rotational constants (GHZ):           1.3747080           0.4539426           0.3675397
 Standard basis: 6-31G(d) (6D, 7F)
 There are   224 symmetry adapted cartesian basis functions of A   symmetry.
 There are   224 symmetry adapted basis functions of A   symmetry.
   224 basis functions,   436 primitive gaussians,   224 cartesian basis functions
    55 alpha electrons       55 beta electrons
       nuclear repulsion energy      1052.6585192454 Hartrees.
 NAtoms=   19 NActive=   19 NUniq=   19 SFac= 1.00D+00 NAtFMM=   60 NAOKFM=F Big=F
 Integral buffers will be    131072 words long.
 Raffenetti 2 integral format.
 Two-electron integral symmetry is turned on.
 R6APFD:  NTU= -4 IXU= 1 FactS= 1.050
 Nuclear repulsion after empirical dispersion term =     1052.6418548202 Hartrees.
 One-electron integrals computed using PRISM.
 NBasis=   224 RedAO= T EigKep=  7.83D-04  NBF=   224
 NBsUse=   224 1.00D-06 EigRej= -1.00D+00 NBFU=   224
 Initial guess from the checkpoint file:  "ZUMPXWNMJGCXDJ-UHFFFAOYSA-N_conf_0_0.chk"
 B after Tr=    -0.000000   -0.000000    0.000000
         Rot=    0.999283   -0.036151    0.005704    0.009721 Ang=  -4.34 deg.
 ExpMin= 1.17D-01 ExpMax= 2.19D+04 ExpMxC= 3.30D+03 IAcc=2 IRadAn=         4 AccDes= 0.00D+00
 Harris functional with IExCor= 3731 and IRadAn=       4 diagonalized for initial guess.
 HarFok:  IExCor= 3731 AccDes= 0.00D+00 IRadAn=         4 IDoV= 1 UseB2=F ITyADJ=14
 ICtDFT=  3500011 ScaDFX=  1.000000  1.000000  1.000000  1.000000
 FoFCou: FMM=F IPFlag=           0 FMFlag=      100000 FMFlg1=           0
         NFxFlg=           0 DoJE=T BraDBF=F KetDBF=T FulRan=T
         wScrn=  0.000000 ICntrl=       500 IOpCl=  0 I1Cent=   200000004 NGrid=           0
         NMat0=    1 NMatS0=      1 NMatT0=    0 NMatD0=    1 NMtDS0=    0 NMtDT0=    0
 Petite list used in FoFCou.
 Keep R1 ints in memory in canonical form, NReq=323229189.
 Requested convergence on RMS density matrix=1.00D-08 within  32 cycles.
 Requested convergence on MAX density matrix=1.00D-06.
 Requested convergence on             energy=1.00D-06.
 No special actions if energy rises.
 Integral accuracy reduced to 1.0D-05 until final iterations.
 Initial convergence to 1.0D-05 achieved.  Increase integral accuracy.
 SCF Done:  E(RAPFD) =  -1098.42806622     A.U. after   15 cycles
            NFock= 15  Conv=0.44D-08     -V/T= 2.0065
 QCSCF skips out because SCF is already converged.
 R6APFD:  NTU= -4 IXU= 1 FactS= 1.050
 Calling FoFJK, ICntrl=      2127 FMM=F ISym2X=0 I1Cent= 0 IOpClX= 0 NMat=1 NMatS=1 NMatT=0.
 ***** Axes restored to original set *****
 -------------------------------------------------------------------
 Center     Atomic                   Forces (Hartrees/Bohr)
 Number     Number              X              Y              Z
 -------------------------------------------------------------------
      1        6           0.000156733    0.000020928    0.000013480
      2        7          -0.001475357    0.000245912    0.000826288
      3        6           0.001165204   -0.000265731   -0.000910252
      4        7           0.001669891    0.000512226    0.000285127
      5        6          -0.001746258   -0.001302006   -0.000925878
      6        6          -0.000471112    0.001356514    0.001351432
      7        6          -0.001965763    0.000241176    0.002412325
      8       16           0.002398649    0.000963067   -0.002415500
      9        9          -0.000143573    0.001238707    0.004149448
     10        8           0.000397682    0.001270406    0.000608028
     11        8           0.000450684   -0.000455089    0.000465219
     12        7          -0.000048068   -0.002604693   -0.004773438
     13        6          -0.000686768   -0.000957443   -0.000034437
     14        7           0.000890728    0.000135609   -0.000671693
     15        1          -0.000246084    0.000041744   -0.000251290
     16        1          -0.000080158   -0.000043768   -0.000024599
     17        1          -0.000261865   -0.000328232   -0.000074750
     18        1          -0.000136007   -0.000079517   -0.000029562
     19        1           0.000131442    0.000010190    0.000000051
 -------------------------------------------------------------------
 Cartesian Forces:  Max     0.004773438 RMS     0.001285598

 GradGradGradGradGradGradGradGradGradGradGradGradGradGradGradGradGradGrad
 Berny optimization.
 Using GEDIIS/GDIIS optimizer.
 FormGI is forming the generalized inverse of G from B-inverse, IUseBI=4.
 Internal  Forces:  Max     0.005544572 RMS     0.001105297
 Search for a local minimum.
 Step number   2 out of a maximum of  103
 All quantities printed in internal units (Hartrees-Bohrs-Radians)
 Mixed Optimization -- RFO/linear search
 Update second derivatives using D2CorX and points    1    2
 DE= -1.07D-02 DEPred=-1.18D-02 R= 9.13D-01
 TightC=F SS=  1.41D+00  RLast= 9.44D-01 DXNew= 5.0454D-01 2.8309D+00
 Trust test= 9.13D-01 RLast= 9.44D-01 DXMaxT set to 5.05D-01
 ITU=  1  0
 Use linear search instead of GDIIS.
     Eigenvalues ---   -0.00210  -0.00034   0.00566   0.01350   0.01517
     Eigenvalues ---    0.01840   0.02281   0.02656   0.03053   0.04208
     Eigenvalues ---    0.05233   0.05770   0.06200   0.06202   0.11350
     Eigenvalues ---    0.13195   0.14192   0.14267   0.15182   0.15729
     Eigenvalues ---    0.15958   0.17281   0.17834   0.18773   0.19155
     Eigenvalues ---    0.19931   0.21490   0.22228   0.24537   0.25090
     Eigenvalues ---    0.26317   0.27636   0.31031   0.33462   0.34935
     Eigenvalues ---    0.35124   0.35530   0.36588   0.37656   0.37898
     Eigenvalues ---    0.39353   0.41254   0.42133   0.44384   0.45703
     Eigenvalues ---    0.48768   0.52296   0.54610   0.58620   0.66315
     Eigenvalues ---    0.66385
 RFO step:  Lambda=-2.19135087D-03 EMin=-2.10411649D-03
 I=     1 Eig=   -2.10D-03 Dot1= -2.41D-04
 I=     1 Stepn= -6.00D-01 RXN=   6.00D-01 EDone=F
 I=     2 Eig=   -3.38D-04 Dot1= -2.25D-05
 I=     2 Stepn= -3.00D-01 RXN=   6.71D-01 EDone=F
 Mixed    2 eigenvectors in step.  Raw Step.Grad=  2.63D-04.
 RFO eigenvector is Hessian eigenvector with negative curvature.
 Taking step of  6.00D-01 in eigenvector direction(s).  Step.Grad= -3.74D-05.
 Quartic linear search produced a step of -0.01645.
 Iteration  1 RMS(Cart)=  0.09264202 RMS(Int)=  0.00843809
 Iteration  2 RMS(Cart)=  0.01160756 RMS(Int)=  0.00011099
 Iteration  3 RMS(Cart)=  0.00014260 RMS(Int)=  0.00004844
 Iteration  4 RMS(Cart)=  0.00000002 RMS(Int)=  0.00004844
 Variable       Old X    -DE/DX   Delta X   Delta X   Delta X     New X
                                 (Linear)    (Quad)   (Total)
    R1        2.73265   0.00058  -0.00022  -0.00055  -0.00077   2.73188
    R2        2.06349  -0.00000   0.00003  -0.00070  -0.00067   2.06282
    R3        2.06210   0.00002   0.00005   0.00012   0.00017   2.06227
    R4        2.06613  -0.00001  -0.00001   0.00075   0.00073   2.06686
    R5        2.59201   0.00048  -0.00014  -0.00039  -0.00053   2.59147
    R6        2.58217   0.00072   0.00000  -0.00002  -0.00001   2.58215
    R7        2.46970   0.00052   0.00034   0.00067   0.00100   2.47070
    R8        2.04711   0.00005   0.00001   0.00001   0.00001   2.04712
    R9        2.59690  -0.00107   0.00003   0.00020   0.00023   2.59713
   R10        2.67371   0.00234  -0.00087  -0.00204  -0.00289   2.67081
   R11        2.50337   0.00085   0.00058   0.00122   0.00177   2.50514
   R12        2.63389   0.00036  -0.00037  -0.00061  -0.00096   2.63294
   R13        3.38346   0.00486  -0.00122  -0.00325  -0.00446   3.37899
   R14        2.48977   0.00554   0.00151   0.00277   0.00431   2.49407
   R15        3.00860   0.00415   0.00001  -0.00055  -0.00054   3.00807
   R16        2.72534   0.00088   0.00029   0.00216   0.00246   2.72780
   R17        2.72111   0.00066   0.00036  -0.00084  -0.00048   2.72064
   R18        2.53183   0.00059   0.00017   0.00035   0.00051   2.53235
   R19        2.52111  -0.00008   0.00040   0.00073   0.00110   2.52221
   R20        2.05217   0.00002   0.00003   0.00005   0.00008   2.05225
    A1        1.90995   0.00029  -0.00025  -0.00502  -0.00527   1.90468
    A2        1.89994   0.00002   0.00020   0.00038   0.00058   1.90052
    A3        1.92550   0.00048  -0.00050   0.00336   0.00286   1.92835
    A4        1.91109  -0.00013   0.00008  -0.00011  -0.00004   1.91106
    A5        1.90524  -0.00047   0.00040   0.00093   0.00133   1.90657
    A6        1.91206  -0.00019   0.00007   0.00044   0.00050   1.91256
    A7        2.23903   0.00057  -0.00048  -0.00128  -0.00181   2.23722
    A8        2.19964   0.00016  -0.00009  -0.00044  -0.00058   2.19906
    A9        1.84408  -0.00073   0.00058   0.00121   0.00176   1.84584
   A10        2.00399   0.00129  -0.00089  -0.00202  -0.00290   2.00109
   A11        2.10730  -0.00080   0.00061   0.00140   0.00200   2.10931
   A12        2.17189  -0.00049   0.00028   0.00062   0.00089   2.17278
   A13        1.81014  -0.00075   0.00040   0.00102   0.00143   1.81156
   A14        1.83680  -0.00051  -0.00010  -0.00004  -0.00012   1.83668
   A15        2.22649   0.00076   0.00003  -0.00035  -0.00034   2.22615
   A16        2.21989  -0.00025   0.00007   0.00037   0.00045   2.22034
   A17        1.92976   0.00069   0.00001  -0.00019  -0.00019   1.92957
   A18        2.37913  -0.00119  -0.00059  -0.00097  -0.00161   2.37752
   A19        1.97429   0.00050   0.00058   0.00115   0.00180   1.97609
   A20        2.19083  -0.00116  -0.00078  -0.00210  -0.00315   2.18768
   A21        2.12842  -0.00117  -0.00032  -0.00093  -0.00139   2.12703
   A22        1.96251   0.00234   0.00113   0.00099   0.00184   1.96436
   A23        1.70547   0.00263   0.00287   0.00517   0.00804   1.71351
   A24        1.90479   0.00166  -0.00021  -0.00730  -0.00748   1.89731
   A25        1.92268  -0.00038  -0.00050   0.00616   0.00567   1.92834
   A26        1.86899  -0.00161  -0.00067  -0.00110  -0.00173   1.86726
   A27        1.86911  -0.00129  -0.00067  -0.00110  -0.00179   1.86732
   A28        2.14100  -0.00045  -0.00021  -0.00053  -0.00072   2.14028
   A29        2.06247   0.00001  -0.00028  -0.00019  -0.00039   2.06208
   A30        2.22187   0.00011   0.00011   0.00002   0.00014   2.22201
   A31        2.02542  -0.00019   0.00003   0.00022   0.00026   2.02568
   A32        2.03589   0.00008  -0.00015  -0.00025  -0.00040   2.03548
   A33        1.95940   0.00079  -0.00016  -0.00046  -0.00065   1.95875
    D1       -2.30973  -0.00004   0.00358  -0.11878  -0.11520  -2.42493
    D2        0.86836  -0.00009   0.00298  -0.09785  -0.09489   0.77347
    D3       -0.22167  -0.00001   0.00365  -0.12167  -0.11801  -0.33969
    D4        2.95642  -0.00006   0.00305  -0.10073  -0.09770   2.85871
    D5        1.87694   0.00006   0.00354  -0.11884  -0.11528   1.76166
    D6       -1.22816   0.00002   0.00294  -0.09790  -0.09497  -1.32313
    D7       -3.11628  -0.00006  -0.00042   0.01437   0.01395  -3.10233
    D8        0.02806  -0.00001  -0.00046   0.01581   0.01535   0.04341
    D9       -0.00534  -0.00001   0.00009  -0.00323  -0.00315  -0.00848
   D10        3.13900   0.00004   0.00004  -0.00179  -0.00175   3.13726
   D11        3.11672   0.00003   0.00041  -0.01406  -0.01366   3.10306
   D12       -0.02152   0.00001   0.00035  -0.01104  -0.01071  -0.03223
   D13        0.00488  -0.00002  -0.00008   0.00305   0.00298   0.00785
   D14       -3.13336  -0.00005  -0.00014   0.00606   0.00593  -3.12744
   D15        0.00318   0.00003  -0.00005   0.00183   0.00178   0.00496
   D16       -3.14128  -0.00001  -0.00000   0.00033   0.00033  -3.14095
   D17        0.00019  -0.00004  -0.00000   0.00026   0.00025   0.00044
   D18        3.14045   0.00006   0.00002  -0.00128  -0.00125   3.13919
   D19       -0.00330   0.00004   0.00005  -0.00215  -0.00209  -0.00539
   D20        3.13929  -0.00004   0.00004  -0.00099  -0.00096   3.13833
   D21        3.13495   0.00007   0.00011  -0.00515  -0.00503   3.12992
   D22       -0.00564  -0.00001   0.00009  -0.00399  -0.00390  -0.00953
   D23        3.13836   0.00008   0.00005  -0.00308  -0.00302   3.13534
   D24        0.00083   0.00005  -0.00001   0.00057   0.00056   0.00138
   D25       -0.05481   0.00013   0.00090  -0.03892  -0.03796  -0.09277
   D26       -3.13468  -0.00003  -0.00011   0.00526   0.00513  -3.12955
   D27        3.08543   0.00024   0.00092  -0.04049  -0.03949   3.04593
   D28        0.00556   0.00008  -0.00009   0.00370   0.00360   0.00916
   D29        0.33041   0.00021  -0.00543   0.23476   0.22931   0.55972
   D30       -1.60954   0.00040  -0.00592   0.23581   0.22991  -1.37963
   D31        2.27560  -0.00014  -0.00503   0.23765   0.23264   2.50824
   D32       -2.86784   0.00027  -0.00450   0.19415   0.18961  -2.67823
   D33        1.47539   0.00045  -0.00499   0.19521   0.19022   1.66561
   D34       -0.92266  -0.00009  -0.00410   0.19704   0.19295  -0.72971
   D35       -0.00107  -0.00019   0.00002  -0.00029  -0.00027  -0.00134
   D36       -3.08832  -0.00023  -0.00088   0.03871   0.03792  -3.05039
   D37       -0.00483   0.00025   0.00008  -0.00392  -0.00382  -0.00865
   D38        3.13948   0.00005   0.00003  -0.00181  -0.00177   3.13770
   D39        0.00481  -0.00017  -0.00008   0.00368   0.00359   0.00840
   D40       -3.13950   0.00002  -0.00003   0.00156   0.00153  -3.13798
         Item               Value     Threshold  Converged?
 Maximum Force            0.005545     0.000450     NO 
 RMS     Force            0.001105     0.000300     NO 
 Maximum Displacement     0.437694     0.001800     NO 
 RMS     Displacement     0.100221     0.001200     NO 
 Predicted change in Energy=-5.200976D-04
 GradGradGradGradGradGradGradGradGradGradGradGradGradGradGradGradGradGrad

                          Input orientation:                          
 ---------------------------------------------------------------------
 Center     Atomic      Atomic             Coordinates (Angstroms)
 Number     Number       Type             X           Y           Z
 ---------------------------------------------------------------------
      1          6           0       -3.027265   -0.674941    0.006902
      2          7           0       -1.716293   -0.185689    0.370060
      3          6           0       -1.374030    0.616713    1.428175
      4          7           0       -0.107924    0.938462    1.481469
      5          6           0       -0.560423   -0.390862   -0.329197
      6          6           0        0.434913    0.315954    0.383001
      7          6           0        1.699571    0.213645   -0.192701
      8         16           0        3.159945    1.086964    0.356726
      9          9           0        2.816306    1.148077    1.909789
     10          8           0        3.104502    2.440781   -0.141034
     11          8           0        4.326870    0.255489    0.216478
     12          7           0        1.907766   -0.474409   -1.299555
     13          6           0        0.860799   -1.086085   -1.870062
     14          7           0       -0.403244   -1.094509   -1.441652
     15          1           0       -2.945616   -1.716893   -0.308149
     16          1           0       -3.682931   -0.607759    0.876692
     17          1           0       -3.443570   -0.082207   -0.812619
     18          1           0       -2.119034    0.936596    2.146618
     19          1           0        1.069659   -1.639328   -2.780943
 ---------------------------------------------------------------------
                    Distance matrix (angstroms):
                    1          2          3          4          5
     1  C    0.000000
     2  N    1.445649   0.000000
     3  C    2.534082   1.371349   0.000000
     4  N    3.646912   2.255171   1.307436   0.000000
     5  C    2.505789   1.366416   2.183007   2.291368   0.000000
     6  C    3.620774   2.208959   2.110715   1.374343   1.413332
     7  C    4.813772   3.484866   3.498103   2.568120   2.343423
     8  S    6.442691   5.039596   4.682529   3.459201   4.061478
     9  F    6.410281   4.969321   4.251261   2.962857   4.334016
    10  O    6.879548   5.513585   5.083984   3.899892   4.635222
    11  O    7.415722   6.061191   5.839431   4.661979   4.959955
    12  N    5.108970   4.000597   4.404684   3.713933   2.653399
    13  C    4.336944   3.531326   4.332707   4.033606   2.208500
    14  N    3.026522   2.415027   3.479456   3.572789   1.325662
    15  H    1.091599   2.077449   3.306119   4.278568   2.729093
    16  H    1.091305   2.074244   2.671046   3.941730   3.354292
    17  H    1.093736   2.095931   3.129320   4.175062   2.939644
    18  H    2.828484   2.139599   1.083290   2.118252   3.212643
    19  H    5.048456   4.450103   5.364514   5.118579   3.197951
                    6          7          8          9         10
     6  C    0.000000
     7  C    1.393291   0.000000
     8  S    2.832128   1.788086   0.000000
     9  F    2.948651   2.557484   1.591800   0.000000
    10  O    3.451986   2.633750   1.443489   2.441315   0.000000
    11  O    3.895987   2.659300   1.439699   2.438405   2.529328
    12  N    2.371701   1.319807   2.597904   3.709150   3.357482
    13  C    2.687636   2.281749   3.868695   4.806534   4.523553
    14  N    2.453828   2.773621   4.548550   5.160122   5.147248
    15  H    4.004764   5.031706   6.751412   6.806398   7.342896
    16  H    4.248955   5.548841   7.068763   6.811046   7.509901
    17  H    4.078072   5.188808   6.807404   6.936221   7.049379
    18  H    3.165152   4.536167   5.576195   4.945543   5.897563
    19  H    3.773138   3.244887   4.652626   5.729168   5.268491
                   11         12         13         14         15
    11  O    0.000000
    12  N    2.946722   0.000000
    13  C    4.262290   1.340061   0.000000
    14  N    5.190941   2.396973   1.334695   0.000000
    15  H    7.553448   5.107051   4.162486   2.852341   0.000000
    16  H    8.083192   6.000811   5.330942   4.045738   1.782600
    17  H    7.845560   5.387738   4.544618   3.265582   1.781754
    18  H    6.763063   5.484721   5.394846   4.465984   3.708117
    19  H    4.815006   2.062515   1.086003   2.063969   4.716265
                   16         17         18         19
    16  H    0.000000
    17  H    1.785293   0.000000
    18  H    2.538409   3.398447   0.000000
    19  H    6.085190   5.164122   6.409681   0.000000
 Stoichiometry    C6H5FN4O2S
 Framework group  C1[X(C6H5FN4O2S)]
 Deg. of freedom    51
 Full point group                 C1      NOp   1
 Largest Abelian subgroup         C1      NOp   1
 Largest concise Abelian subgroup C1      NOp   1
                         Standard orientation:                         
 ---------------------------------------------------------------------
 Center     Atomic      Atomic             Coordinates (Angstroms)
 Number     Number       Type             X           Y           Z
 ---------------------------------------------------------------------
      1          6           0       -4.143410   -0.227641    0.047100
      2          7           0       -2.727299   -0.512031   -0.013313
      3          6           0       -2.107657   -1.735402   -0.015623
      4          7           0       -0.801288   -1.685038   -0.031512
      5          6           0       -1.721841    0.413240   -0.018099
      6          6           0       -0.525246   -0.338705   -0.033843
      7          6           0        0.621088    0.453164   -0.044899
      8         16           0        2.298804   -0.153873    0.073537
      9          9           0        2.088804   -1.546050   -0.669141
     10          8           0        2.586534   -0.452676    1.456139
     11          8           0        3.178880    0.633636   -0.749887
     12          7           0        0.557605    1.771363   -0.030395
     13          6           0       -0.652866    2.345754   -0.005916
     14          7           0       -1.838916    1.733638   -0.003173
     15          1           0       -4.373620    0.590113   -0.638372
     16          1           0       -4.696074   -1.119928   -0.251787
     17          1           0       -4.433089    0.060236    1.061729
     18          1           0       -2.686213   -2.651230   -0.008700
     19          1           0       -0.665540    3.431578    0.009218
 ---------------------------------------------------------------------
 Rotational constants (GHZ):           1.3743729           0.4536043           0.3674761
 Standard basis: 6-31G(d) (6D, 7F)
 There are   224 symmetry adapted cartesian basis functions of A   symmetry.
 There are   224 symmetry adapted basis functions of A   symmetry.
   224 basis functions,   436 primitive gaussians,   224 cartesian basis functions
    55 alpha electrons       55 beta electrons
       nuclear repulsion energy      1052.3196831999 Hartrees.
 NAtoms=   19 NActive=   19 NUniq=   19 SFac= 1.00D+00 NAtFMM=   60 NAOKFM=F Big=F
 Integral buffers will be    131072 words long.
 Raffenetti 2 integral format.
 Two-electron integral symmetry is turned on.
 R6APFD:  NTU= -4 IXU= 1 FactS= 1.050
 Nuclear repulsion after empirical dispersion term =     1052.3030639063 Hartrees.
 One-electron integrals computed using PRISM.
 NBasis=   224 RedAO= T EigKep=  7.82D-04  NBF=   224
 NBsUse=   224 1.00D-06 EigRej= -1.00D+00 NBFU=   224
 Initial guess from the checkpoint file:  "ZUMPXWNMJGCXDJ-UHFFFAOYSA-N_conf_0_0.chk"
 B after Tr=     0.000000    0.000000    0.000000
         Rot=    0.999679   -0.024936    0.004503   -0.000184 Ang=  -2.90 deg.
 ExpMin= 1.17D-01 ExpMax= 2.19D+04 ExpMxC= 3.30D+03 IAcc=2 IRadAn=         4 AccDes= 0.00D+00
 Harris functional with IExCor= 3731 and IRadAn=       4 diagonalized for initial guess.
 HarFok:  IExCor= 3731 AccDes= 0.00D+00 IRadAn=         4 IDoV= 1 UseB2=F ITyADJ=14
 ICtDFT=  3500011 ScaDFX=  1.000000  1.000000  1.000000  1.000000
 FoFCou: FMM=F IPFlag=           0 FMFlag=      100000 FMFlg1=           0
         NFxFlg=           0 DoJE=T BraDBF=F KetDBF=T FulRan=T
         wScrn=  0.000000 ICntrl=       500 IOpCl=  0 I1Cent=   200000004 NGrid=           0
         NMat0=    1 NMatS0=      1 NMatT0=    0 NMatD0=    1 NMtDS0=    0 NMtDT0=    0
 Petite list used in FoFCou.
 Keep R1 ints in memory in canonical form, NReq=323229189.
 Requested convergence on RMS density matrix=1.00D-08 within  32 cycles.
 Requested convergence on MAX density matrix=1.00D-06.
 Requested convergence on             energy=1.00D-06.
 No special actions if energy rises.
 Integral accuracy reduced to 1.0D-05 until final iterations.
 Initial convergence to 1.0D-05 achieved.  Increase integral accuracy.
 SCF Done:  E(RAPFD) =  -1098.42816744     A.U. after   14 cycles
            NFock= 14  Conv=0.68D-08     -V/T= 2.0065
 QCSCF skips out because SCF is already converged.
 R6APFD:  NTU= -4 IXU= 1 FactS= 1.050
 Calling FoFJK, ICntrl=      2127 FMM=F ISym2X=0 I1Cent= 0 IOpClX= 0 NMat=1 NMatS=1 NMatT=0.
 ***** Axes restored to original set *****
 -------------------------------------------------------------------
 Center     Atomic                   Forces (Hartrees/Bohr)
 Number     Number              X              Y              Z
 -------------------------------------------------------------------
      1        6          -0.000157700   -0.000041670    0.000181610
      2        7          -0.001987637    0.000338291    0.000621016
      3        6           0.002400552   -0.000453982   -0.001408270
      4        7           0.002784123    0.000670112    0.000576095
      5        6          -0.002253955   -0.002296118   -0.001727765
      6        6          -0.000690419    0.002022264    0.002243612
      7        6          -0.001688087   -0.001453265   -0.000922573
      8       16           0.004364708    0.003660101   -0.002947690
      9        9          -0.001339651    0.000344161    0.004992992
     10        8           0.000222713    0.000314400    0.001154644
[...]
    17  H    0.000002   0.000262  -0.022346  -0.031354   0.492696   0.000695
    18  H    0.000007  -0.000060  -0.000091   0.000677   0.000695   0.483989
    19  H    0.401969  -0.061332  -0.000008  -0.000000  -0.000000  -0.000000
              19
     1  C    0.000005
     2  N   -0.000113
     3  C    0.000004
     4  N    0.000012
     5  C    0.003990
     6  C    0.000428
     7  C    0.005463
     8  S   -0.000124
     9  F    0.000000
    10  O    0.000000
    11  O    0.000007
    12  N   -0.059577
    13  C    0.401969
    14  N   -0.061332
    15  H   -0.000008
    16  H   -0.000000
    17  H   -0.000000
    18  H   -0.000000
    19  H    0.503389
 Mulliken charges:
               1
     1  C   -0.403705
     2  N   -0.510127
     3  C    0.205317
     4  N   -0.472900
     5  C    0.580839
     6  C    0.258837
     7  C   -0.118092
     8  S    1.273496
     9  F   -0.297069
    10  O   -0.456071
    11  O   -0.454859
    12  N   -0.362076
    13  C    0.179033
    14  N   -0.502269
    15  H    0.233191
    16  H    0.216577
    17  H    0.217039
    18  H    0.206955
    19  H    0.205885
 Sum of Mulliken charges =  -0.00000
 Mulliken charges with hydrogens summed into heavy atoms:
               1
     1  C    0.263103
     2  N   -0.510127
     3  C    0.412272
     4  N   -0.472900
     5  C    0.580839
     6  C    0.258837
     7  C   -0.118092
     8  S    1.273496
     9  F   -0.297069
    10  O   -0.456071
    11  O   -0.454859
    12  N   -0.362076
    13  C    0.384917
    14  N   -0.502269
 Electronic spatial extent (au):  <R**2>=           2871.5655
 Charge=              0.0000 electrons
 Dipole moment (field-independent basis, Debye):
    X=             -8.4401    Y=              0.4634    Z=             -0.5666  Tot=              8.4717
 Quadrupole moment (field-independent basis, Debye-Ang):
   XX=            -75.3620   YY=            -81.8073   ZZ=            -87.3863
   XY=              4.3970   XZ=             -1.1976   YZ=              1.8358
 Traceless Quadrupole moment (field-independent basis, Debye-Ang):
   XX=              6.1566   YY=             -0.2888   ZZ=             -5.8678
   XY=              4.3970   XZ=             -1.1976   YZ=              1.8358
 Octapole moment (field-independent basis, Debye-Ang**2):
  XXX=            -88.9861  YYY=              2.6193  ZZZ=             -7.7248  XYY=             -8.1121
  XXY=            -31.6334  XXZ=             -3.7000  XZZ=              3.3039  YZZ=             -1.4754
  YYZ=             -1.8969  XYZ=              5.1061
 Hexadecapole moment (field-independent basis, Debye-Ang**3):
 XXXX=          -2295.9764 YYYY=           -752.6087 ZZZZ=           -181.8461 XXXY=             20.7930
 XXXZ=            -11.2864 YYYX=              2.3714 YYYZ=              6.9259 ZZZX=            -16.9493
 ZZZY=              8.5539 XXYY=           -551.5253 XXZZ=           -462.8688 YYZZ=           -177.9404
 XXYZ=             15.8976 YYXZ=             -4.4002 ZZXY=              3.6812
 N-N= 1.052041893749D+03 E-N=-4.686384059489D+03  KE= 1.091241596042D+03
 Evaluate density.
 Using the total density.
 Monte-Carlo method of calculating molar volume:
 based on  0.001 e/bohr**3 density envelope.
 Number of points per bohr**3 =   20 CutOff= 1.00D-04
 Using the CI density.
 There are       426 points.  Will hold       426 in memory.
 LenV=   805158840 MDV=   805306368.
 Box volume = 9703.186 fraction occupied=0.150
 Integrated density= 1.0751309055227212D+03 error= 9.6513090552272115D+02
 Molar volume = 1457.756 bohr**3/mol (130.089 cm**3/mol)
 Recommended a0 for SCRF calculation =  4.60 angstrom (  8.69 bohr)
 ******************************Gaussian NBO Version 3.1******************************
             N A T U R A L   A T O M I C   O R B I T A L   A N D
          N A T U R A L   B O N D   O R B I T A L   A N A L Y S I S
 ******************************Gaussian NBO Version 3.1******************************
       /RESON  / : Allow strongly delocalized NBO set

 Analyzing the CI density

 Job title: ZUMPXWNMJGCXDJ-UHFFFAOYSA-N_conf_0                              

 Storage needed:    151854 in NPA ( 805304373 available)


 NATURAL POPULATIONS:  Natural atomic orbital occupancies 
                                                          
   NAO  Atom  No  lang   Type(AO)    Occupancy
 --------------------------------------------
     1    C    1  S      Cor( 1S)     1.99945
     2    C    1  S      Val( 2S)     1.09505
     3    C    1  S      Ryd( 3S)     0.00117
     4    C    1  S      Ryd( 4S)     0.00001
     5    C    1  px     Val( 2p)     0.85933
     6    C    1  px     Ryd( 3p)     0.00229
     7    C    1  py     Val( 2p)     1.27046
     8    C    1  py     Ryd( 3p)     0.00338
     9    C    1  pz     Val( 2p)     1.26293
    10    C    1  pz     Ryd( 3p)     0.00140
    11    C    1  dxy    Ryd( 3d)     0.00041
    12    C    1  dxz    Ryd( 3d)     0.00116
    13    C    1  dyz    Ryd( 3d)     0.00058
    14    C    1  dx2y2  Ryd( 3d)     0.00131
    15    C    1  dz2    Ryd( 3d)     0.00090
 
    16    N    2  S      Cor( 1S)     1.99927
    17    N    2  S      Val( 2S)     1.19133
    18    N    2  S      Ryd( 3S)     0.00128
    19    N    2  S      Ryd( 4S)     0.00002
    20    N    2  px     Val( 2p)     1.31203
    21    N    2  px     Ryd( 3p)     0.00226
    22    N    2  py     Val( 2p)     1.31100
    23    N    2  py     Ryd( 3p)     0.00203
    24    N    2  pz     Val( 2p)     1.56253
    25    N    2  pz     Ryd( 3p)     0.00257
    26    N    2  dxy    Ryd( 3d)     0.00087
    27    N    2  dxz    Ryd( 3d)     0.00093
    28    N    2  dyz    Ryd( 3d)     0.00091
    29    N    2  dx2y2  Ryd( 3d)     0.00062
    30    N    2  dz2    Ryd( 3d)     0.00057
 
    31    C    3  S      Cor( 1S)     1.99933
    32    C    3  S      Val( 2S)     0.89333
    33    C    3  S      Ryd( 3S)     0.00250
    34    C    3  S      Ryd( 4S)     0.00013
    35    C    3  px     Val( 2p)     0.89459
    36    C    3  px     Ryd( 3p)     0.00984
    37    C    3  py     Val( 2p)     0.98594
    38    C    3  py     Ryd( 3p)     0.00560
    39    C    3  pz     Val( 2p)     1.02044
    40    C    3  pz     Ryd( 3p)     0.00377
    41    C    3  dxy    Ryd( 3d)     0.00216
    42    C    3  dxz    Ryd( 3d)     0.00142
    43    C    3  dyz    Ryd( 3d)     0.00096
    44    C    3  dx2y2  Ryd( 3d)     0.00096
    45    C    3  dz2    Ryd( 3d)     0.00047
 
    46    N    4  S      Cor( 1S)     1.99929
    47    N    4  S      Val( 2S)     1.37572
    48    N    4  S      Ryd( 3S)     0.00050
    49    N    4  S      Ryd( 4S)     0.00001
    50    N    4  px     Val( 2p)     1.35889
    51    N    4  px     Ryd( 3p)     0.00368
    52    N    4  py     Val( 2p)     1.36057
    53    N    4  py     Ryd( 3p)     0.00380
    54    N    4  pz     Val( 2p)     1.27195
    55    N    4  pz     Ryd( 3p)     0.00078
    56    N    4  dxy    Ryd( 3d)     0.00286
    57    N    4  dxz    Ryd( 3d)     0.00257
    58    N    4  dyz    Ryd( 3d)     0.00203
    59    N    4  dx2y2  Ryd( 3d)     0.00315
    60    N    4  dz2    Ryd( 3d)     0.00225
 
    61    C    5  S      Cor( 1S)     1.99900
    62    C    5  S      Val( 2S)     0.79018
    63    C    5  S      Ryd( 3S)     0.00375
    64    C    5  S      Ryd( 4S)     0.00024
    65    C    5  px     Val( 2p)     0.93870
    66    C    5  px     Ryd( 3p)     0.00831
    67    C    5  py     Val( 2p)     0.89407
    68    C    5  py     Ryd( 3p)     0.00496
    69    C    5  pz     Val( 2p)     0.99644
    70    C    5  pz     Ryd( 3p)     0.00153
    71    C    5  dxy    Ryd( 3d)     0.00165
    72    C    5  dxz    Ryd( 3d)     0.00106
    73    C    5  dyz    Ryd( 3d)     0.00236
    74    C    5  dx2y2  Ryd( 3d)     0.00086
    75    C    5  dz2    Ryd( 3d)     0.00035
 
    76    C    6  S      Cor( 1S)     1.99879
    77    C    6  S      Val( 2S)     0.84599
    78    C    6  S      Ryd( 3S)     0.00325
    79    C    6  S      Ryd( 4S)     0.00012
    80    C    6  px     Val( 2p)     1.03312
    81    C    6  px     Ryd( 3p)     0.00719
    82    C    6  py     Val( 2p)     0.95780
    83    C    6  py     Ryd( 3p)     0.00686
    84    C    6  pz     Val( 2p)     1.09515
    85    C    6  pz     Ryd( 3p)     0.00254
    86    C    6  dxy    Ryd( 3d)     0.00127
    87    C    6  dxz    Ryd( 3d)     0.00094
    88    C    6  dyz    Ryd( 3d)     0.00146
    89    C    6  dx2y2  Ryd( 3d)     0.00070
    90    C    6  dz2    Ryd( 3d)     0.00039
 
    91    C    7  S      Cor( 1S)     1.99868
    92    C    7  S      Val( 2S)     0.91920
    93    C    7  S      Ryd( 3S)     0.00412
    94    C    7  S      Ryd( 4S)     0.00016
    95    C    7  px     Val( 2p)     1.08567
    96    C    7  px     Ryd( 3p)     0.00833
    97    C    7  py     Val( 2p)     0.94575
    98    C    7  py     Ryd( 3p)     0.01256
    99    C    7  pz     Val( 2p)     1.22706
   100    C    7  pz     Ryd( 3p)     0.00748
   101    C    7  dxy    Ryd( 3d)     0.00113
   102    C    7  dxz    Ryd( 3d)     0.00073
   103    C    7  dyz    Ryd( 3d)     0.00122
   104    C    7  dx2y2  Ryd( 3d)     0.00080
   105    C    7  dz2    Ryd( 3d)     0.00040
 
   106    S    8  S      Cor( 1S)     2.00000
   107    S    8  S      Cor( 2S)     1.99916
   108    S    8  S      Val( 3S)     1.03248
   109    S    8  S      Ryd( 4S)     0.00442
   110    S    8  S      Ryd( 5S)     0.00027
   111    S    8  px     Cor( 2p)     1.99990
   112    S    8  px     Val( 3p)     0.85365
   113    S    8  px     Ryd( 4p)     0.00982
   114    S    8  py     Cor( 2p)     1.99987
   115    S    8  py     Val( 3p)     0.75377
   116    S    8  py     Ryd( 4p)     0.01076
   117    S    8  pz     Cor( 2p)     1.99989
   118    S    8  pz     Val( 3p)     0.73734
   119    S    8  pz     Ryd( 4p)     0.01067
   120    S    8  dxy    Ryd( 3d)     0.02840
   121    S    8  dxz    Ryd( 3d)     0.03210
   122    S    8  dyz    Ryd( 3d)     0.03827
   123    S    8  dx2y2  Ryd( 3d)     0.03486
   124    S    8  dz2    Ryd( 3d)     0.03808
 
   125    F    9  S      Cor( 1S)     1.99997
   126    F    9  S      Val( 2S)     1.92700
   127    F    9  S      Ryd( 3S)     0.00232
   128    F    9  S      Ryd( 4S)     0.00012
   129    F    9  px     Val( 2p)     1.94263
   130    F    9  px     Ryd( 3p)     0.00018
   131    F    9  py     Val( 2p)     1.81378
   132    F    9  py     Ryd( 3p)     0.00032
   133    F    9  pz     Val( 2p)     1.80087
   134    F    9  pz     Ryd( 3p)     0.00031
   135    F    9  dxy    Ryd( 3d)     0.00104
   136    F    9  dxz    Ryd( 3d)     0.00109
   137    F    9  dyz    Ryd( 3d)     0.00186
   138    F    9  dx2y2  Ryd( 3d)     0.00104
   139    F    9  dz2    Ryd( 3d)     0.00170
 
   140    O   10  S      Cor( 1S)     1.99988
   141    O   10  S      Val( 2S)     1.83058
   142    O   10  S      Ryd( 3S)     0.00126
   143    O   10  S      Ryd( 4S)     0.00002
   144    O   10  px     Val( 2p)     1.77156
   145    O   10  px     Ryd( 3p)     0.00083
   146    O   10  py     Val( 2p)     1.69225
   147    O   10  py     Ryd( 3p)     0.00056
   148    O   10  pz     Val( 2p)     1.55269
   149    O   10  pz     Ryd( 3p)     0.00069
   150    O   10  dxy    Ryd( 3d)     0.00146
   151    O   10  dxz    Ryd( 3d)     0.00490
   152    O   10  dyz    Ryd( 3d)     0.00604
   153    O   10  dx2y2  Ryd( 3d)     0.00173
   154    O   10  dz2    Ryd( 3d)     0.00668
 
   155    O   11  S      Cor( 1S)     1.99988
   156    O   11  S      Val( 2S)     1.82698
   157    O   11  S      Ryd( 3S)     0.00116
   158    O   11  S      Ryd( 4S)     0.00002
   159    O   11  px     Val( 2p)     1.65615
   160    O   11  px     Ryd( 3p)     0.00066
   161    O   11  py     Val( 2p)     1.63517
   162    O   11  py     Ryd( 3p)     0.00090
   163    O   11  pz     Val( 2p)     1.73434
   164    O   11  pz     Ryd( 3p)     0.00050
   165    O   11  dxy    Ryd( 3d)     0.00550
   166    O   11  dxz    Ryd( 3d)     0.00374
   167    O   11  dyz    Ryd( 3d)     0.00337
   168    O   11  dx2y2  Ryd( 3d)     0.00565
   169    O   11  dz2    Ryd( 3d)     0.00287
 
   170    N   12  S      Cor( 1S)     1.99916
   171    N   12  S      Val( 2S)     1.33180
   172    N   12  S      Ryd( 3S)     0.00064
   173    N   12  S      Ryd( 4S)     0.00002
   174    N   12  px     Val( 2p)     1.27323
   175    N   12  px     Ryd( 3p)     0.00510
   176    N   12  py     Val( 2p)     1.32740
   177    N   12  py     Ryd( 3p)     0.00343
   178    N   12  pz     Val( 2p)     1.33156
   179    N   12  pz     Ryd( 3p)     0.00217
   180    N   12  dxy    Ryd( 3d)     0.00197
   181    N   12  dxz    Ryd( 3d)     0.00268
   182    N   12  dyz    Ryd( 3d)     0.00141
   183    N   12  dx2y2  Ryd( 3d)     0.00265
   184    N   12  dz2    Ryd( 3d)     0.00164
 
   185    C   13  S      Cor( 1S)     1.99940
   186    C   13  S      Val( 2S)     0.90822
   187    C   13  S      Ryd( 3S)     0.00171
   188    C   13  S      Ryd( 4S)     0.00011
   189    C   13  px     Val( 2p)     0.80944
   190    C   13  px     Ryd( 3p)     0.01124
   191    C   13  py     Val( 2p)     1.12445
   192    C   13  py     Ryd( 3p)     0.00602
   193    C   13  pz     Val( 2p)     0.94168
   194    C   13  pz     Ryd( 3p)     0.00260
   195    C   13  dxy    Ryd( 3d)     0.00112
   196    C   13  dxz    Ryd( 3d)     0.00204
   197    C   13  dyz    Ryd( 3d)     0.00051
   198    C   13  dx2y2  Ryd( 3d)     0.00207
   199    C   13  dz2    Ryd( 3d)     0.00039
 
   200    N   14  S      Cor( 1S)     1.99925
   201    N   14  S      Val( 2S)     1.35014
   202    N   14  S      Ryd( 3S)     0.00080
   203    N   14  S      Ryd( 4S)     0.00001
   204    N   14  px     Val( 2p)     1.33337
   205    N   14  px     Ryd( 3p)     0.00381
   206    N   14  py     Val( 2p)     1.27546
   207    N   14  py     Ryd( 3p)     0.00348
   208    N   14  pz     Val( 2p)     1.44448
   209    N   14  pz     Ryd( 3p)     0.00308
   210    N   14  dxy    Ryd( 3d)     0.00235
   211    N   14  dxz    Ryd( 3d)     0.00293
   212    N   14  dyz    Ryd( 3d)     0.00104
   213    N   14  dx2y2  Ryd( 3d)     0.00281
   214    N   14  dz2    Ryd( 3d)     0.00169
 
   215    H   15  S      Val( 1S)     0.73001
   216    H   15  S      Ryd( 2S)     0.00103
 
   217    H   16  S      Val( 1S)     0.74517
   218    H   16  S      Ryd( 2S)     0.00083
 
   219    H   17  S      Val( 1S)     0.74484
   220    H   17  S      Ryd( 2S)     0.00083
 
   221    H   18  S      Val( 1S)     0.75901
   222    H   18  S      Ryd( 2S)     0.00048
 
   223    H   19  S      Val( 1S)     0.76046
   224    H   19  S      Ryd( 2S)     0.00091

 WARNING:  1 low occupancy (<1.9990e) core orbital  found on  C    6
           1 low occupancy (<1.9990e) core orbital  found on  C    7


 Summary of Natural Population Analysis:                  
                                                          
                                       Natural Population 
                Natural  -----------------------------------------------
    Atom  No    Charge         Core      Valence    Rydberg      Total
 -----------------------------------------------------------------------
      C    1   -0.49981      1.99945     4.48776    0.01260     6.49981
      N    2   -0.38822      1.99927     5.37689    0.01207     7.38822
      C    3    0.17855      1.99933     3.79430    0.02781     5.82145
      N    4   -0.38806      1.99929     5.36713    0.02164     7.38806
      C    5    0.35653      1.99900     3.61939    0.02508     5.64347
      C    6    0.04443      1.99879     3.93206    0.02472     5.95557
      C    7   -0.21331      1.99868     4.17769    0.03694     6.21331
      S    8    2.41628      9.99883     3.37724    0.20765    13.58372
      F    9   -0.49424      1.99997     7.48428    0.00999     9.49424
      O   10   -0.87112      1.99988     6.84708    0.02416     8.87112
      O   11   -0.87688      1.99988     6.85264    0.02437     8.87688
      N   12   -0.28486      1.99916     5.26399    0.02171     7.28486
      C   13    0.18899      1.99940     3.78379    0.02782     5.81101
      N   14   -0.42471      1.99925     5.40346    0.02200     7.42471
      H   15    0.26897      0.00000     0.73001    0.00103     0.73103
      H   16    0.25400      0.00000     0.74517    0.00083     0.74600
      H   17    0.25433      0.00000     0.74484    0.00083     0.74567
      H   18    0.24051      0.00000     0.75901    0.00048     0.75949
      H   19    0.23862      0.00000     0.76046    0.00091     0.76138
 =======================================================================
   * Total *    0.00000     35.99018    73.50718    0.50264   110.00000

                                 Natural Population      
 --------------------------------------------------------
   Core                      35.99018 ( 99.9727% of  36)
   Valence                   73.50718 ( 99.3340% of  74)
   Natural Minimal Basis    109.49736 ( 99.5431% of 110)
   Natural Rydberg Basis      0.50264 (  0.4569% of 110)
 --------------------------------------------------------

    Atom  No          Natural Electron Configuration
 ----------------------------------------------------------------------------
      C    1      [core]2S( 1.10)2p( 3.39)3p( 0.01)
      N    2      [core]2S( 1.19)2p( 4.19)3p( 0.01)
      C    3      [core]2S( 0.89)2p( 2.90)3p( 0.02)3d( 0.01)
      N    4      [core]2S( 1.38)2p( 3.99)3p( 0.01)3d( 0.01)
      C    5      [core]2S( 0.79)2p( 2.83)3p( 0.01)3d( 0.01)
      C    6      [core]2S( 0.85)2p( 3.09)3p( 0.02)
      C    7      [core]2S( 0.92)2p( 3.26)3p( 0.03)
      S    8      [core]3S( 1.03)3p( 2.34)3d( 0.17)4p( 0.03)
      F    9      [core]2S( 1.93)2p( 5.56)3d( 0.01)
      O   10      [core]2S( 1.83)2p( 5.02)3d( 0.02)
      O   11      [core]2S( 1.83)2p( 5.03)3d( 0.02)
      N   12      [core]2S( 1.33)2p( 3.93)3p( 0.01)3d( 0.01)
      C   13      [core]2S( 0.91)2p( 2.88)3p( 0.02)3d( 0.01)
      N   14      [core]2S( 1.35)2p( 4.05)3p( 0.01)3d( 0.01)
      H   15            1S( 0.73)
      H   16            1S( 0.75)
      H   17            1S( 0.74)
      H   18            1S( 0.76)
      H   19            1S( 0.76)


 NBO analysis skipped by request.
 1\1\GINC-DELLA-R3C4N3\SP\RAPFD TD-FC\6-31G(d)\C6H5F1N4O2S1\SHIVAANI\28
 -Jan-2024\0\\# TD(NStates=10, Root=1) APFD/6-31G* volume pop=NPA densi
 ty=current Geom=AllCheck Guess=Read\\ZUMPXWNMJGCXDJ-UHFFFAOYSA-N_conf_
 0\\0,1\C,0,-3.0323060796,-0.6524546619,0.0230360134\N,0,-1.7211598584,
 -0.1163940556,0.3209911196\C,0,-1.3695066983,0.7690314201,1.3092757001
 \N,0,-0.0993642648,1.0804557046,1.3455162598\C,0,-0.5606969725,-0.4020
 002654,-0.3451904797\C,0,0.4365750406,0.3577289817,0.3109605255\C,0,1.
 709121548,0.1934498426,-0.2287809958\S,0,3.130783538,1.1174275565,0.38
 31290516\F,0,2.8920469614,0.8449574154,1.9447114383\O,0,2.9094613686,2
 .527416732,0.1726773695\O,0,4.3556622252,0.451989845,0.0249106364\N,0,
 1.9337435606,-0.5963447397,-1.2628122834\C,0,0.8854849821,-1.252064544
 7,-1.7855631306\N,0,-0.3853825778,-1.2068764244,-1.3825249343\H,0,-2.9
 283746675,-1.3224562976,-0.8318018053\H,0,-3.4189744212,-1.2142775147,
 0.8773564718\H,0,-3.7253889224,0.153458647,-0.2320211013\H,0,-2.115339
 0215,1.1595697621,1.9910730244\H,0,1.1036142593,-1.8926174031,-2.63494
 28799\\Version=ES64L-G16RevA.03\State=1-A\HF=-1098.4290099\RMSD=5.138e
 -09\Dipole=-3.1027098,-1.1868214,-0.2716292\Quadrupole=5.7046398,-4.91
 79102,-0.7867296,-0.0670594,-1.9151507,1.0052955\PG=C01 [X(C6H5F1N4O2S
 1)]\\@


 TO ERR IS HUMAN - AND TO BLAME IT ON A COMPUTER IS EVEN MORE SO.
 Job cpu time:       0 days  0 hours 17 minutes 30.4 seconds.
 Elapsed time:       0 days  0 hours  5 minutes 59.9 seconds.
 File lengths (MBytes):  RWF=    458 Int=      0 D2E=      0 Chk=    268 Scr=      1
 Normal termination of Gaussian 16 at Sun Jan 28 15:31:57 2024.
