 Entering Gaussian System, Link 0=g16
 Input=YKZXWWMBQGHLNP-UHFFFAOYSA-N_conf_0.gjf
 Output=YKZXWWMBQGHLNP-UHFFFAOYSA-N_conf_0.log
 Initial command:
 /opt/export/g16/l1.exe "/tmp/Gau-3586857.inp" -scrdir="/tmp/"
 Entering Link 1 = /opt/export/g16/l1.exe PID=   3586863.
  
 Copyright (c) 1988,1990,1992,1993,1995,1998,2003,2009,2016,
            Gaussian, Inc.  All Rights Reserved.
  
 This is part of the Gaussian(R) 16 program.  It is based on
 the Gaussian(R) 09 system (copyright 2009, Gaussian, Inc.),
 the Gaussian(R) 03 system (copyright 2003, Gaussian, Inc.),
 the Gaussian(R) 98 system (copyright 1998, Gaussian, Inc.),
 the Gaussian(R) 94 system (copyright 1995, Gaussian, Inc.),
 the Gaussian 92(TM) system (copyright 1992, Gaussian, Inc.),
 the Gaussian 90(TM) system (copyright 1990, Gaussian, Inc.),
 the Gaussian 88(TM) system (copyright 1988, Gaussian, Inc.),
 the Gaussian 86(TM) system (copyright 1986, Carnegie Mellon
 University), and the Gaussian 82(TM) system (copyright 1983,
 Carnegie Mellon University). Gaussian is a federally registered
 trademark of Gaussian, Inc.
  
 This software contains proprietary and confidential information,
 including trade secrets, belonging to Gaussian, Inc.
  
 This software is provided under written license and may be
 used, copied, transmitted, or stored only in accord with that
 written license.
  
 The following legend is applicable only to US Government
 contracts under FAR:
  
                    RESTRICTED RIGHTS LEGEND
  
 Use, reproduction and disclosure by the US Government is
 subject to restrictions as set forth in subparagraphs (a)
 and (c) of the Commercial Computer Software - Restricted
 Rights clause in FAR 52.227-19.
  
 Gaussian, Inc.
 340 Quinnipiac St., Bldg. 40, Wallingford CT 06492
  
  
 ---------------------------------------------------------------
 Warning -- This program may not be used in any manner that
 competes with the business of Gaussian, Inc. or will provide
 assistance to any competitor of Gaussian, Inc.  The licensee
 of this program is prohibited from giving any competitor of
 Gaussian, Inc. access to this program.  By using this program,
 the user acknowledges that Gaussian, Inc. is engaged in the
 business of creating and licensing software in the field of
 computational chemistry and represents and warrants to the
 licensee that it is not a competitor of Gaussian, Inc. and that
 it will not use this program in any manner prohibited above.
 ---------------------------------------------------------------
  

 Cite this work as:
 Gaussian 16, Revision A.03,
 M. J. Frisch, G. W. Trucks, H. B. Schlegel, G. E. Scuseria, 
 M. A. Robb, J. R. Cheeseman, G. Scalmani, V. Barone, 
 G. A. Petersson, H. Nakatsuji, X. Li, M. Caricato, A. V. Marenich, 
 J. Bloino, B. G. Janesko, R. Gomperts, B. Mennucci, H. P. Hratchian, 
 J. V. Ortiz, A. F. Izmaylov, J. L. Sonnenberg, D. Williams-Young, 
 F. Ding, F. Lipparini, F. Egidi, J. Goings, B. Peng, A. Petrone, 
 T. Henderson, D. Ranasinghe, V. G. Zakrzewski, J. Gao, N. Rega, 
 G. Zheng, W. Liang, M. Hada, M. Ehara, K. Toyota, R. Fukuda, 
 J. Hasegawa, M. Ishida, T. Nakajima, Y. Honda, O. Kitao, H. Nakai, 
 T. Vreven, K. Throssell, J. A. Montgomery, Jr., J. E. Peralta, 
 F. Ogliaro, M. J. Bearpark, J. J. Heyd, E. N. Brothers, K. N. Kudin, 
 V. N. Staroverov, T. A. Keith, R. Kobayashi, J. Normand, 
 K. Raghavachari, A. P. Rendell, J. C. Burant, S. S. Iyengar, 
 J. Tomasi, M. Cossi, J. M. Millam, M. Klene, C. Adamo, R. Cammi, 
 J. W. Ochterski, R. L. Martin, K. Morokuma, O. Farkas, 
 J. B. Foresman, and D. J. Fox, Gaussian, Inc., Wallingford CT, 2016.
 
 ******************************************
 Gaussian 16:  ES64L-G16RevA.03 25-Dec-2016
                16-Feb-2024 
 ******************************************
 %nprocshared=2
 Will use up to    2 processors via shared memory.
 %mem=4GB
 %Chk=YKZXWWMBQGHLNP-UHFFFAOYSA-N_conf_0_0.chk
 --------------------------------
 # opt=CalcFc APFD/6-31G* scf=xqc
 --------------------------------
 1/10=4,18=20,19=15,26=3,38=1/1,3;
 2/9=110,12=2,17=6,18=5,40=1/2;
 3/5=1,6=6,7=1,11=2,25=1,30=1,71=2,74=-44,140=1/1,2,3;
 4//1;
 5/5=2,8=3,13=1,38=5/2,8;
 8/6=4,10=90,11=11/1;
 11/6=1,8=1,9=11,15=111,16=1/1,2,10;
 10/6=1,13=1/2;
 6/7=2,8=2,9=2,10=2,28=1/1;
 7/10=1,18=20,25=1/1,2,3,16;
 1/10=4,18=20,19=15,26=3/3(2);
 2/9=110/2;
 99//99;
 2/9=110/2;
 3/5=1,6=6,7=1,11=2,25=1,30=1,71=1,74=-44/1,2,3;
 4/5=5,16=3,69=1/1;
 5/5=2,8=3,13=1,38=5/2,8;
 7//1,2,3,16;
 1/18=20,19=15,26=3/3(-5);
 2/9=110/2;
 6/7=2,8=2,9=2,10=2,19=2,28=1/1;
 99/9=1/99;
 ----------------------------------
 YKZXWWMBQGHLNP-UHFFFAOYSA-N_conf_0
 ----------------------------------
 Symbolic Z-matrix:
 Charge =  0 Multiplicity = 1
 N                     4.43606   0.11534  -0.11307 
 C                     3.27644   0.08107  -0.09381 
 C                     1.84284   0.04091  -0.06668 
 C                     1.15601  -0.97537  -0.74408 
 C                    -0.24003  -1.01638  -0.71878 
 C                    -0.94144  -0.03159  -0.01743 
 S                    -2.70948  -0.10076   0.04124 
 O                    -3.08851  -1.47625   0.28963 
 O                    -3.20797   0.65795  -1.08597 
 F                    -3.15352   0.70311   1.34112 
 C                    -0.26989   0.98207   0.6704 
 C                     1.1268    1.01717   0.6402 
 H                     1.7039   -1.74061  -1.29268 
 H                    -0.76984  -1.8113   -1.24126 
 H                    -0.81593   1.7453    1.2209 
 H                     1.65456   1.80933   1.17027 
 

 GradGradGradGradGradGradGradGradGradGradGradGradGradGradGradGradGradGrad
 Berny optimization.
 Initialization pass.
                           ----------------------------
                           !    Initial Parameters    !
                           ! (Angstroms and Degrees)  !
 --------------------------                            --------------------------
 ! Name  Definition              Value          Derivative Info.                !
 --------------------------------------------------------------------------------
 ! R1    R(1,2)                  1.1603         calculate D2E/DX2 analytically  !
 ! R2    R(2,3)                  1.4344         calculate D2E/DX2 analytically  !
 ! R3    R(3,4)                  1.4012         calculate D2E/DX2 analytically  !
 ! R4    R(3,12)                 1.402          calculate D2E/DX2 analytically  !
 ! R5    R(4,5)                  1.3969         calculate D2E/DX2 analytically  !
 ! R6    R(4,13)                 1.0894         calculate D2E/DX2 analytically  !
 ! R7    R(5,6)                  1.3977         calculate D2E/DX2 analytically  !
 ! R8    R(5,14)                 1.0888         calculate D2E/DX2 analytically  !
 ! R9    R(6,7)                  1.7704         calculate D2E/DX2 analytically  !
 ! R10   R(6,11)                 1.397          calculate D2E/DX2 analytically  !
 ! R11   R(7,8)                  1.4482         calculate D2E/DX2 analytically  !
 ! R12   R(7,9)                  1.4473         calculate D2E/DX2 analytically  !
 ! R13   R(7,10)                 1.5916         calculate D2E/DX2 analytically  !
 ! R14   R(11,12)                1.3975         calculate D2E/DX2 analytically  !
 ! R15   R(11,15)                1.088          calculate D2E/DX2 analytically  !
 ! R16   R(12,16)                1.0895         calculate D2E/DX2 analytically  !
 ! A1    A(2,3,4)              120.0693         calculate D2E/DX2 analytically  !
 ! A2    A(2,3,12)             120.033          calculate D2E/DX2 analytically  !
 ! A3    A(4,3,12)             119.8976         calculate D2E/DX2 analytically  !
 ! A4    A(3,4,5)              120.1597         calculate D2E/DX2 analytically  !
 ! A5    A(3,4,13)             120.4252         calculate D2E/DX2 analytically  !
 ! A6    A(5,4,13)             119.415          calculate D2E/DX2 analytically  !
 ! A7    A(4,5,6)              119.335          calculate D2E/DX2 analytically  !
 ! A8    A(4,5,14)             119.9359         calculate D2E/DX2 analytically  !
 ! A9    A(6,5,14)             120.729          calculate D2E/DX2 analytically  !
 ! A10   A(5,6,7)              119.3573         calculate D2E/DX2 analytically  !
 ! A11   A(5,6,11)             121.1353         calculate D2E/DX2 analytically  !
 ! A12   A(7,6,11)             119.4794         calculate D2E/DX2 analytically  !
 ! A13   A(6,7,8)              107.7081         calculate D2E/DX2 analytically  !
 ! A14   A(6,7,9)              107.3184         calculate D2E/DX2 analytically  !
 ! A15   A(6,7,10)             106.6162         calculate D2E/DX2 analytically  !
 ! A16   A(8,7,9)              122.7741         calculate D2E/DX2 analytically  !
 ! A17   A(8,7,10)             105.4633         calculate D2E/DX2 analytically  !
 ! A18   A(9,7,10)             105.9755         calculate D2E/DX2 analytically  !
 ! A19   A(6,11,12)            119.211          calculate D2E/DX2 analytically  !
 ! A20   A(6,11,15)            121.1233         calculate D2E/DX2 analytically  !
 ! A21   A(12,11,15)           119.6643         calculate D2E/DX2 analytically  !
 ! A22   A(3,12,11)            120.2569         calculate D2E/DX2 analytically  !
 ! A23   A(3,12,16)            120.2783         calculate D2E/DX2 analytically  !
 ! A24   A(11,12,16)           119.4648         calculate D2E/DX2 analytically  !
 ! A25   L(1,2,3,16,-1)        179.852          calculate D2E/DX2 analytically  !
 ! A26   L(1,2,3,16,-2)        180.0725         calculate D2E/DX2 analytically  !
 ! D1    D(2,3,4,5)            179.9922         calculate D2E/DX2 analytically  !
 ! D2    D(2,3,4,13)             0.1142         calculate D2E/DX2 analytically  !
 ! D3    D(12,3,4,5)             0.1252         calculate D2E/DX2 analytically  !
 ! D4    D(12,3,4,13)         -179.7528         calculate D2E/DX2 analytically  !
 ! D5    D(2,3,12,11)         -179.9624         calculate D2E/DX2 analytically  !
 ! D6    D(2,3,12,16)            0.0452         calculate D2E/DX2 analytically  !
 ! D7    D(4,3,12,11)           -0.0954         calculate D2E/DX2 analytically  !
 ! D8    D(4,3,12,16)          179.9122         calculate D2E/DX2 analytically  !
 ! D9    D(3,4,5,6)              0.2951         calculate D2E/DX2 analytically  !
 ! D10   D(3,4,5,14)          -179.6179         calculate D2E/DX2 analytically  !
 ! D11   D(13,4,5,6)          -179.8257         calculate D2E/DX2 analytically  !
 ! D12   D(13,4,5,14)            0.2613         calculate D2E/DX2 analytically  !
 ! D13   D(4,5,6,7)           -178.8233         calculate D2E/DX2 analytically  !
 ! D14   D(4,5,6,11)            -0.7586         calculate D2E/DX2 analytically  !
 ! D15   D(14,5,6,7)             1.0889         calculate D2E/DX2 analytically  !
 ! D16   D(14,5,6,11)          179.1536         calculate D2E/DX2 analytically  !
 ! D17   D(5,6,7,8)             43.6365         calculate D2E/DX2 analytically  !
 ! D18   D(5,6,7,9)            -90.3748         calculate D2E/DX2 analytically  !
 ! D19   D(5,6,7,10)           156.4271         calculate D2E/DX2 analytically  !
 ! D20   D(11,6,7,8)          -134.4606         calculate D2E/DX2 analytically  !
 ! D21   D(11,6,7,9)            91.5281         calculate D2E/DX2 analytically  !
 ! D22   D(11,6,7,10)          -21.6701         calculate D2E/DX2 analytically  !
 ! D23   D(5,6,11,12)            0.7873         calculate D2E/DX2 analytically  !
 ! D24   D(5,6,11,15)         -179.6521         calculate D2E/DX2 analytically  !
 ! D25   D(7,6,11,12)          178.8496         calculate D2E/DX2 analytically  !
 ! D26   D(7,6,11,15)           -1.5897         calculate D2E/DX2 analytically  !
 ! D27   D(6,11,12,3)           -0.3541         calculate D2E/DX2 analytically  !
 ! D28   D(6,11,12,16)         179.6384         calculate D2E/DX2 analytically  !
 ! D29   D(15,11,12,3)        -179.9212         calculate D2E/DX2 analytically  !
 ! D30   D(15,11,12,16)          0.0712         calculate D2E/DX2 analytically  !
 --------------------------------------------------------------------------------
 Trust Radius=3.00D-01 FncErr=1.00D-07 GrdErr=1.00D-06 EigMax=2.50D+02 EigMin=1.00D-04
 Number of steps in this run=     82 maximum allowed number of steps=    100.
 GradGradGradGradGradGradGradGradGradGradGradGradGradGradGradGradGradGrad

                          Input orientation:                          
 ---------------------------------------------------------------------
 Center     Atomic      Atomic             Coordinates (Angstroms)
 Number     Number       Type             X           Y           Z
 ---------------------------------------------------------------------
      1          7           0        4.436060    0.115342   -0.113070
      2          6           0        3.276438    0.081073   -0.093808
      3          6           0        1.842845    0.040914   -0.066680
      4          6           0        1.156012   -0.975371   -0.744079
      5          6           0       -0.240034   -1.016384   -0.718781
      6          6           0       -0.941440   -0.031590   -0.017425
      7         16           0       -2.709481   -0.100757    0.041242
      8          8           0       -3.088509   -1.476254    0.289631
      9          8           0       -3.207973    0.657955   -1.085971
     10          9           0       -3.153515    0.703112    1.341117
     11          6           0       -0.269894    0.982075    0.670396
     12          6           0        1.126797    1.017170    0.640195
     13          1           0        1.703896   -1.740609   -1.292680
     14          1           0       -0.769835   -1.811303   -1.241256
     15          1           0       -0.815931    1.745302    1.220902
     16          1           0        1.654563    1.809325    1.170267
 ---------------------------------------------------------------------
                    Distance matrix (angstroms):
                    1          2          3          4          5
     1  N    0.000000
     2  C    1.160288   0.000000
     3  C    2.594698   1.434412   0.000000
     4  C    3.513764   2.456650   1.401229   0.000000
     5  C    4.849077   3.736385   2.425180   1.396878   0.000000
     6  C    5.380357   4.220073   2.785664   2.412064   1.397745
     7  S    7.150473   5.990202   4.555808   4.040262   2.741200
     8  O    7.701590   6.563905   5.171751   4.397204   3.056499
     9  O    7.724778   6.585192   5.189456   4.672152   3.427375
    10  F    7.749954   6.617420   5.232974   5.073202   3.960836
    11  C    4.848819   3.737951   2.427494   2.804557   2.434038
    12  C    3.511684   2.456826   1.401953   2.426373   2.801854
    13  H    3.507243   2.688626   2.167073   1.089371   2.152376
    14  H    5.664461   4.611947   3.411222   2.157512   1.088837
    15  H    5.658591   4.609295   3.410556   3.892527   3.423586
    16  H    3.500465   2.686116   2.166280   3.415817   3.891354
                    6          7          8          9         10
     6  C    0.000000
     7  S    1.770366   0.000000
     8  O    2.606002   1.448224   0.000000
     9  O    2.598929   1.447324   2.541929   0.000000
    10  F    2.697907   1.591555   2.420637   2.428119   0.000000
    11  C    1.396992   2.742252   3.759382   3.438341   2.973712
    12  C    2.410387   4.040487   4.910078   4.679628   4.348678
    13  H    3.397767   4.893501   5.053784   5.470127   6.041779
    14  H    2.166701   2.886692   2.798593   3.473595   4.321211
    15  H    2.169459   2.895698   4.050963   3.496549   2.562209
    16  H    3.396883   4.895712   5.836719   5.482748   4.936651
                   11         12         13         14         15
    11  C    0.000000
    12  C    1.397458   0.000000
    13  H    3.893908   3.416781   0.000000
    14  H    3.421595   3.890673   2.475275   0.000000
    15  H    1.087993   2.154434   4.981887   4.325944   0.000000
    16  H    2.153544   1.089506   4.320946   4.980171   2.471842
                   16
    16  H    0.000000
 Stoichiometry    C7H4FNO2S
 Framework group  C1[X(C7H4FNO2S)]
 Deg. of freedom    42
 Full point group                 C1      NOp   1
 Largest Abelian subgroup         C1      NOp   1
 Largest concise Abelian subgroup C1      NOp   1
                         Standard orientation:                         
 ---------------------------------------------------------------------
 Center     Atomic      Atomic             Coordinates (Angstroms)
 Number     Number       Type             X           Y           Z
 ---------------------------------------------------------------------
      1          7           0       -5.009032    0.072595   -0.036226
      2          6           0       -3.849285    0.041705   -0.018816
      3          6           0       -2.415428    0.007213    0.001226
      4          6           0       -1.742829   -1.221964    0.014517
      5          6           0       -0.346544   -1.257758    0.033877
      6          6           0        0.369130   -0.057195    0.046088
      7         16           0        2.138923   -0.101643    0.038939
      8          8           0        2.550617   -1.098977   -0.927076
      9          8           0        2.575003   -0.120549    1.418875
     10          9           0        2.626784    1.291769   -0.555572
     11          6           0       -0.287699    1.175546    0.023430
     12          6           0       -1.684748    1.203694    0.004725
     13          1           0       -2.301955   -2.156877    0.007869
     14          1           0        0.172457   -2.214935    0.037867
     15          1           0        0.269699    2.109903    0.027287
     16          1           0       -2.201338    2.162872   -0.006989
 ---------------------------------------------------------------------
 Rotational constants (GHZ):           2.6140251           0.4131466           0.3849843
 Standard basis: 6-31G(d) (6D, 7F)
 There are   192 symmetry adapted cartesian basis functions of A   symmetry.
 There are   192 symmetry adapted basis functions of A   symmetry.
   192 basis functions,   376 primitive gaussians,   192 cartesian basis functions
    47 alpha electrons       47 beta electrons
       nuclear repulsion energy       765.9470101458 Hartrees.
 NAtoms=   16 NActive=   16 NUniq=   16 SFac= 1.00D+00 NAtFMM=   60 NAOKFM=F Big=F
 Integral buffers will be    131072 words long.
 Raffenetti 2 integral format.
 Two-electron integral symmetry is turned on.
 R6APFD:  NTU= -4 IXU= 1 FactS= 1.050
 Nuclear repulsion after empirical dispersion term =      765.9332988241 Hartrees.
 One-electron integrals computed using PRISM.
 NBasis=   192 RedAO= T EigKep=  4.61D-04  NBF=   192
 NBsUse=   192 1.00D-06 EigRej= -1.00D+00 NBFU=   192
 ExpMin= 1.17D-01 ExpMax= 2.19D+04 ExpMxC= 3.30D+03 IAcc=3 IRadAn=         5 AccDes= 0.00D+00
 Harris functional with IExCor= 3731 and IRadAn=       5 diagonalized for initial guess.
 HarFok:  IExCor= 3731 AccDes= 0.00D+00 IRadAn=         5 IDoV= 1 UseB2=F ITyADJ=14
 ICtDFT=  3500011 ScaDFX=  1.000000  1.000000  1.000000  1.000000
 FoFCou: FMM=F IPFlag=           0 FMFlag=      100000 FMFlg1=           0
         NFxFlg=           0 DoJE=T BraDBF=F KetDBF=T FulRan=T
         wScrn=  0.000000 ICntrl=       500 IOpCl=  0 I1Cent=   200000004 NGrid=           0
         NMat0=    1 NMatS0=      1 NMatT0=    0 NMatD0=    1 NMtDS0=    0 NMtDT0=    0
 Petite list used in FoFCou.
 Keep R1 ints in memory in canonical form, NReq=175248284.
 Requested convergence on RMS density matrix=1.00D-08 within  32 cycles.
 Requested convergence on MAX density matrix=1.00D-06.
 Requested convergence on             energy=1.00D-06.
 No special actions if energy rises.
 Integral accuracy reduced to 1.0D-05 until final iterations.
 Initial convergence to 1.0D-05 achieved.  Increase integral accuracy.
 SCF Done:  E(RAPFD) =  -971.743268627     A.U. after   16 cycles
            NFock= 16  Conv=0.23D-08     -V/T= 2.0065
 QCSCF skips out because SCF is already converged.
 DoSCS=F DFT=T ScalE2(SS,OS)=  1.000000  1.000000
 Range of M.O.s used for correlation:     1   192
 NBasis=   192 NAE=    47 NBE=    47 NFC=     0 NFV=     0
 NROrb=    192 NOA=    47 NOB=    47 NVA=   145 NVB=   145
 R6APFD:  NTU= -4 IXU= 1 FactS= 1.050
 Symmetrizing basis deriv contribution to polar:
 IMax=3 JMax=2 DiffMx= 0.00D+00
 G2DrvN: will do    17 centers at a time, making    1 passes.
 Calling FoFCou, ICntrl=  3107 FMM=F I1Cent=   0 AccDes= 0.00D+00.
 End of G2Drv F.D. properties file   721 does not exist.
 End of G2Drv F.D. properties file   722 does not exist.
 End of G2Drv F.D. properties file   788 does not exist.
          IDoAtm=1111111111111111
          Differentiating once with respect to nuclear coordinates.
 Keep R1 ints in memory in canonical form, NReq=175255028.
          There are    51 degrees of freedom in the 1st order CPHF.  IDoFFX=6 NUNeed=     0.
     45 vectors produced by pass  0 Test12= 1.34D-14 1.96D-09 XBig12= 3.12D-01 1.88D-01.
 AX will form    45 AO Fock derivatives at one time.
     45 vectors produced by pass  1 Test12= 1.34D-14 1.96D-09 XBig12= 1.56D-01 1.74D-01.
     45 vectors produced by pass  2 Test12= 1.34D-14 1.96D-09 XBig12= 4.74D-03 1.14D-02.
     45 vectors produced by pass  3 Test12= 1.34D-14 1.96D-09 XBig12= 6.65D-05 2.00D-03.
     45 vectors produced by pass  4 Test12= 1.34D-14 1.96D-09 XBig12= 2.17D-07 9.83D-05.
     45 vectors produced by pass  5 Test12= 1.34D-14 1.96D-09 XBig12= 4.30D-10 2.40D-06.
     20 vectors produced by pass  6 Test12= 1.34D-14 1.96D-09 XBig12= 5.99D-13 1.43D-07.
      1 vectors produced by pass  7 Test12= 1.34D-14 1.96D-09 XBig12= 4.71D-16 2.33D-09.
 InvSVY:  IOpt=1 It=  1 EMax= 5.55D-16
 Solved reduced A of dimension   291 with    51 vectors.
 End of Minotr F.D. properties file   721 does not exist.
 End of Minotr F.D. properties file   722 does not exist.
 End of Minotr F.D. properties file   788 does not exist.

 **********************************************************************

            Population analysis using the SCF density.

 **********************************************************************

 Orbital symmetries:
       Occupied  (A) (A) (A) (A) (A) (A) (A) (A) (A) (A) (A) (A)
                 (A) (A) (A) (A) (A) (A) (A) (A) (A) (A) (A) (A)
                 (A) (A) (A) (A) (A) (A) (A) (A) (A) (A) (A) (A)
                 (A) (A) (A) (A) (A) (A) (A) (A) (A) (A) (A)
       Virtual   (A) (A) (A) (A) (A) (A) (A) (A) (A) (A) (A) (A)
                 (A) (A) (A) (A) (A) (A) (A) (A) (A) (A) (A) (A)
                 (A) (A) (A) (A) (A) (A) (A) (A) (A) (A) (A) (A)
                 (A) (A) (A) (A) (A) (A) (A) (A) (A) (A) (A) (A)
                 (A) (A) (A) (A) (A) (A) (A) (A) (A) (A) (A) (A)
                 (A) (A) (A) (A) (A) (A) (A) (A) (A) (A) (A) (A)
                 (A) (A) (A) (A) (A) (A) (A) (A) (A) (A) (A) (A)
                 (A) (A) (A) (A) (A) (A) (A) (A) (A) (A) (A) (A)
                 (A) (A) (A) (A) (A) (A) (A) (A) (A) (A) (A) (A)
                 (A) (A) (A) (A) (A) (A) (A) (A) (A) (A) (A) (A)
                 (A) (A) (A) (A) (A) (A) (A) (A) (A) (A) (A) (A)
                 (A) (A) (A) (A) (A) (A) (A) (A) (A) (A) (A) (A)
                 (A)
 The electronic state is 1-A.
 Alpha  occ. eigenvalues --  -89.25489 -24.81713 -19.22879 -19.22812 -14.39577
 Alpha  occ. eigenvalues --  -10.30660 -10.30292 -10.28333 -10.28256 -10.28068
 Alpha  occ. eigenvalues --  -10.28029 -10.27664  -8.23312  -6.18282  -6.17874
 Alpha  occ. eigenvalues --   -6.17818  -1.30876  -1.15080  -1.06758  -0.95420
 Alpha  occ. eigenvalues --   -0.93370  -0.85384  -0.82385  -0.75081  -0.68774
 Alpha  occ. eigenvalues --   -0.67580  -0.61655  -0.60488  -0.55580  -0.53657
 Alpha  occ. eigenvalues --   -0.52635  -0.51365  -0.49020  -0.48303  -0.47201
 Alpha  occ. eigenvalues --   -0.45548  -0.44993  -0.41989  -0.40698  -0.39641
 Alpha  occ. eigenvalues --   -0.39112  -0.36545  -0.36357  -0.35989  -0.34811
 Alpha  occ. eigenvalues --   -0.31778  -0.30644
 Alpha virt. eigenvalues --   -0.09355  -0.05851  -0.00952   0.01611   0.03794
 Alpha virt. eigenvalues --    0.04581   0.07502   0.10553   0.11163   0.12608
 Alpha virt. eigenvalues --    0.13881   0.15704   0.17639   0.17764   0.22842
 Alpha virt. eigenvalues --    0.26024   0.26928   0.29566   0.31969   0.33160
 Alpha virt. eigenvalues --    0.36483   0.38041   0.38254   0.43330   0.48455
 Alpha virt. eigenvalues --    0.50055   0.51457   0.52815   0.54755   0.54998
 Alpha virt. eigenvalues --    0.55914   0.56628   0.57804   0.58860   0.60147
 Alpha virt. eigenvalues --    0.62238   0.65833   0.66665   0.69626   0.70540
 Alpha virt. eigenvalues --    0.73919   0.76135   0.77152   0.78548   0.79549
 Alpha virt. eigenvalues --    0.81652   0.82138   0.83643   0.83990   0.85315
 Alpha virt. eigenvalues --    0.86181   0.86509   0.87610   0.92453   0.95548
 Alpha virt. eigenvalues --    0.97986   0.98645   1.01055   1.02221   1.03851
 Alpha virt. eigenvalues --    1.07866   1.09928   1.12948   1.13819   1.15751
 Alpha virt. eigenvalues --    1.16974   1.19273   1.24077   1.25275   1.27910
 Alpha virt. eigenvalues --    1.29554   1.30073   1.34003   1.36443   1.37262
 Alpha virt. eigenvalues --    1.39746   1.42206   1.44469   1.45364   1.50721
 Alpha virt. eigenvalues --    1.51632   1.52322   1.56628   1.59905   1.72894
 Alpha virt. eigenvalues --    1.73354   1.75406   1.76485   1.76760   1.77219
 Alpha virt. eigenvalues --    1.77634   1.79262   1.80042   1.82355   1.83272
 Alpha virt. eigenvalues --    1.83525   1.86584   1.88484   1.92336   1.93140
 Alpha virt. eigenvalues --    1.94331   1.95355   1.96460   1.99898   2.04269
 Alpha virt. eigenvalues --    2.07484   2.08737   2.09407   2.10595   2.11773
 Alpha virt. eigenvalues --    2.12416   2.18756   2.24221   2.24481   2.27293
 Alpha virt. eigenvalues --    2.29263   2.45238   2.46046   2.57546   2.58742
 Alpha virt. eigenvalues --    2.59696   2.62342   2.69716   2.71725   2.72159
 Alpha virt. eigenvalues --    2.77840   2.79314   2.81103   2.81818   2.87320
 Alpha virt. eigenvalues --    3.12900   3.22574   3.39987   3.77682   3.85420
 Alpha virt. eigenvalues --    3.95234   4.02868   4.07716   4.08331   4.15380
 Alpha virt. eigenvalues --    4.28553   4.28891   4.48396   4.52503   4.75507
          Condensed to atoms (all electrons):
               1          2          3          4          5          6
     1  N    6.697526   0.856411  -0.091616  -0.000274  -0.000068   0.000008
     2  C    0.856411   4.703497   0.247720  -0.042483   0.005454   0.000610
     3  C   -0.091616   0.247720   4.820327   0.538468  -0.023741  -0.028066
     4  C   -0.000274  -0.042483   0.538468   4.929135   0.500555  -0.041234
     5  C   -0.000068   0.005454  -0.023741   0.500555   4.935922   0.502483
     6  C    0.000008   0.000610  -0.028066  -0.041234   0.502483   5.314787
     7  S   -0.000000  -0.000013  -0.000490   0.002017  -0.023163   0.207519
     8  O   -0.000000  -0.000000  -0.000007   0.000405   0.002118  -0.059072
     9  O   -0.000000  -0.000000  -0.000001  -0.000061  -0.003151  -0.058612
    10  F   -0.000000  -0.000000  -0.000003  -0.000012   0.000588  -0.034360
    11  C   -0.000065   0.005493  -0.024983  -0.042029  -0.025119   0.490040
    12  C   -0.000375  -0.042405   0.543742  -0.042539  -0.038606  -0.043518
    13  H    0.000401  -0.005298  -0.036318   0.369234  -0.036165   0.004426
    14  H   -0.000000  -0.000152   0.002949  -0.027214   0.366160  -0.039990
    15  H   -0.000000  -0.000158   0.003006   0.000496   0.003287  -0.043754
    16  H    0.000414  -0.005341  -0.036067   0.004015   0.000309   0.004235
               7          8          9         10         11         12
     1  N   -0.000000  -0.000000  -0.000000  -0.000000  -0.000065  -0.000375
     2  C   -0.000013  -0.000000  -0.000000  -0.000000   0.005493  -0.042405
     3  C   -0.000490  -0.000007  -0.000001  -0.000003  -0.024983   0.543742
     4  C    0.002017   0.000405  -0.000061  -0.000012  -0.042029  -0.042539
     5  C   -0.023163   0.002118  -0.003151   0.000588  -0.025119  -0.038606
     6  C    0.207519  -0.059072  -0.058612  -0.034360   0.490040  -0.043518
     7  S   13.464887   0.448268   0.470903   0.203812  -0.019479   0.001401
     8  O    0.448268   8.156546  -0.040223  -0.035316   0.000492  -0.000071
     9  O    0.470903  -0.040223   8.133656  -0.035220  -0.002041  -0.000093
    10  F    0.203812  -0.035316  -0.035220   9.172110   0.005059   0.000313
    11  C   -0.019479   0.000492  -0.002041   0.005059   4.965890   0.489432
    12  C    0.001401  -0.000071  -0.000093   0.000313   0.489432   4.933288
    13  H   -0.000037   0.000002   0.000001   0.000000   0.000398   0.003891
    14  H   -0.000849   0.003743  -0.000228   0.000012   0.003416   0.000493
    15  H   -0.001204   0.000052  -0.000009   0.005258   0.366217  -0.026205
    16  H   -0.000016   0.000000   0.000001   0.000001  -0.035968   0.368613
              13         14         15         16
     1  N    0.000401  -0.000000  -0.000000   0.000414
     2  C   -0.005298  -0.000152  -0.000158  -0.005341
     3  C   -0.036318   0.002949   0.003006  -0.036067
     4  C    0.369234  -0.027214   0.000496   0.004015
     5  C   -0.036165   0.366160   0.003287   0.000309
     6  C    0.004426  -0.039990  -0.043754   0.004235
     7  S   -0.000037  -0.000849  -0.001204  -0.000016
     8  O    0.000002   0.003743   0.000052   0.000000
     9  O    0.000001  -0.000228  -0.000009   0.000001
    10  F    0.000000   0.000012   0.005258   0.000001
    11  C    0.000398   0.003416   0.366217  -0.035968
    12  C    0.003891   0.000493  -0.026205   0.368613
    13  H    0.483230  -0.003923   0.000011  -0.000118
    14  H   -0.003923   0.463513  -0.000118   0.000011
    15  H    0.000011  -0.000118   0.474301  -0.003991
    16  H   -0.000118   0.000011  -0.003991   0.485919
 Mulliken charges:
               1
     1  N   -0.462362
     2  C    0.276665
     3  C    0.085080
     4  C   -0.148482
     5  C   -0.166862
     6  C   -0.175504
     7  S    1.246445
     8  O   -0.476940
     9  O   -0.464922
    10  F   -0.282242
    11  C   -0.176753
    12  C   -0.147361
    13  H    0.220265
    14  H    0.232177
    15  H    0.222811
    16  H    0.217985
 Sum of Mulliken charges =  -0.00000
 Mulliken charges with hydrogens summed into heavy atoms:
               1
     1  N   -0.462362
     2  C    0.276665
     3  C    0.085080
     4  C    0.071783
     5  C    0.065315
     6  C   -0.175504
     7  S    1.246445
     8  O   -0.476940
     9  O   -0.464922
    10  F   -0.282242
    11  C    0.046059
    12  C    0.070624
 APT charges:
               1
     1  N    2.501777
     2  C   -2.353886
     3  C   -0.033688
     4  C   -0.542435
     5  C   -0.603609
     6  C   -0.321958
     7  S    0.206847
     8  O   -0.067451
     9  O   -0.072913
    10  F   -0.026840
    11  C   -0.598311
    12  C   -0.556857
    13  H    0.701231
    14  H    0.554770
    15  H    0.529591
    16  H    0.683730
 Sum of APT charges =  -0.00000
 APT charges with hydrogens summed into heavy atoms:
               1
     1  N    2.501777
     2  C   -2.353886
     3  C   -0.033688
     4  C    0.158797
     5  C   -0.048838
     6  C   -0.321958
     7  S    0.206847
     8  O   -0.067451
     9  O   -0.072913
    10  F   -0.026840
    11  C   -0.068720
    12  C    0.126873
 Electronic spatial extent (au):  <R**2>=           2655.8975
 Charge=             -0.0000 electrons
 Dipole moment (field-independent basis, Debye):
    X=             -0.4963    Y=              0.8333    Z=             -0.3301  Tot=              1.0245
 Quadrupole moment (field-independent basis, Debye-Ang):
   XX=           -103.8327   YY=            -64.1409   ZZ=            -78.3614
   XY=              3.6666   XZ=             -1.3892   YZ=             -1.2970
 Traceless Quadrupole moment (field-independent basis, Debye-Ang):
   XX=            -21.7211   YY=             17.9708   ZZ=              3.7503
   XY=              3.6666   XZ=             -1.3892   YZ=             -1.2970
 Octapole moment (field-independent basis, Debye-Ang**2):
  XXX=            166.9968  YYY=              5.5856  ZZZ=             -6.1702  XYY=              0.5623
  XXY=              6.8335  XXZ=             -3.1016  XZZ=              6.5774  YZZ=              3.7313
  YYZ=              1.6775  XYZ=             -3.1334
 Hexadecapole moment (field-independent basis, Debye-Ang**3):
 XXXX=          -3672.0786 YYYY=           -354.8248 ZZZZ=           -178.2828 XXXY=             54.8575
 XXXZ=            -24.3254 YYYX=             20.0235 YYYZ=             -4.8795 ZZZX=            -15.0841
 ZZZY=             -3.8943 XXYY=           -509.3676 XXZZ=           -516.8248 YYZZ=           -101.9479
 XXYZ=             -8.8135 YYXZ=              3.3541 ZZXY=              9.6510
 N-N= 7.659332988241D+02 E-N=-3.817254169880D+03  KE= 9.654510689707D+02
  Exact polarizability:   0.000   0.000   0.000   0.000   0.000   0.000
 Approx polarizability: 229.782  -3.113 156.300   3.402   3.968  82.109
 R6APFD:  NTU= -4 IXU= 1 FactS= 1.050
 Calling FoFJK, ICntrl=    100147 FMM=F ISym2X=0 I1Cent= 0 IOpClX= 0 NMat=1 NMatS=1 NMatT=0.
 ***** Axes restored to original set *****
 -------------------------------------------------------------------
 Center     Atomic                   Forces (Hartrees/Bohr)
 Number     Number              X              Y              Z
 -------------------------------------------------------------------
      1        7           0.003378882    0.000070464   -0.000176221
      2        6          -0.005848305   -0.000158275    0.000496807
      3        6          -0.001503436    0.000845901    0.000752364
      4        6          -0.007158744   -0.001730735   -0.002688133
      5        6           0.000016958   -0.001622901   -0.000986023
      6        6           0.009135306    0.008540597    0.018651993
      7       16          -0.007071498   -0.019401750   -0.027216760
      8        8          -0.000433598    0.005255348   -0.001146352
      9        8          -0.002842411   -0.000576762    0.005131628
     10        9           0.010866932    0.006003505    0.006321093
     11        6           0.006450813    0.000352857   -0.002494671
     12        6          -0.004926779    0.003422234    0.001559104
     13        1          -0.000545735    0.002441279    0.001672817
     14        1           0.000418637    0.001313600    0.002266357
     15        1           0.000248815   -0.002125465   -0.000573170
     16        1          -0.000185838   -0.002629899   -0.001570832
 -------------------------------------------------------------------
 Cartesian Forces:  Max     0.027216760 RMS     0.006709406
 FormGI is forming the generalized inverse of G from B-inverse, IUseBI=4.

 GradGradGradGradGradGradGradGradGradGradGradGradGradGradGradGradGradGrad
 Berny optimization.
 Internal  Forces:  Max     0.033939396 RMS     0.005255547
 Search for a local minimum.
 Step number   1 out of a maximum of   82
 All quantities printed in internal units (Hartrees-Bohrs-Radians)
 Mixed Optimization -- RFO/linear search
 Second derivative matrix not updated -- analytic derivatives used.
 ITU=  0
     Eigenvalues ---   -0.00149   0.01272   0.01695   0.01712   0.01965
     Eigenvalues ---    0.02248   0.02484   0.02639   0.02740   0.02881
     Eigenvalues ---    0.06031   0.07356   0.11700   0.11923   0.12097
     Eigenvalues ---    0.12963   0.13876   0.15474   0.16007   0.17021
     Eigenvalues ---    0.17390   0.18613   0.19032   0.19753   0.21778
     Eigenvalues ---    0.23159   0.29206   0.31996   0.35960   0.36157
     Eigenvalues ---    0.36423   0.36587   0.37005   0.41410   0.42024
     Eigenvalues ---    0.43635   0.47304   0.47558   0.51318   0.67899
     Eigenvalues ---    0.68271   1.28236
 RFO step:  Lambda=-9.32884108D-03 EMin=-1.48894678D-03
 Linear search not attempted -- first point.
 Iteration  1 RMS(Cart)=  0.10890809 RMS(Int)=  0.06097577
 Iteration  2 RMS(Cart)=  0.09697660 RMS(Int)=  0.00799548
 Iteration  3 RMS(Cart)=  0.00946442 RMS(Int)=  0.00070824
 Iteration  4 RMS(Cart)=  0.00009104 RMS(Int)=  0.00070535
 Iteration  5 RMS(Cart)=  0.00000020 RMS(Int)=  0.00070535
 Variable       Old X    -DE/DX   Delta X   Delta X   Delta X     New X
                                 (Linear)    (Quad)   (Total)
    R1        2.19263   0.00338   0.00000   0.00273   0.00273   2.19536
    R2        2.71065  -0.00248   0.00000  -0.00489  -0.00489   2.70576
    R3        2.64794   0.00024   0.00000  -0.00096  -0.00112   2.64682
    R4        2.64931  -0.00186   0.00000   0.00172   0.00156   2.65087
    R5        2.63972  -0.00866   0.00000  -0.01426  -0.01426   2.62545
    R6        2.05861  -0.00283   0.00000  -0.00750  -0.00750   2.05111
    R7        2.64136  -0.00530   0.00000  -0.01057  -0.01041   2.63094
    R8        2.05760  -0.00225   0.00000  -0.00616  -0.00616   2.05144
    R9        3.34551  -0.00074   0.00000  -0.00316  -0.00316   3.34235
   R10        2.63993  -0.00255   0.00000  -0.00539  -0.00523   2.63470
   R11        2.73675  -0.00507   0.00000  -0.01029  -0.01029   2.72646
   R12        2.73505  -0.00332   0.00000  -0.00857  -0.00857   2.72648
   R13        3.00760   0.00516   0.00000   0.02313   0.02313   3.03073
   R14        2.64081  -0.00806   0.00000  -0.01902  -0.01903   2.62179
   R15        2.05601  -0.00191   0.00000  -0.00568  -0.00568   2.05033
   R16        2.05887  -0.00277   0.00000  -0.00766  -0.00766   2.05121
    A1        2.09560  -0.00108   0.00000  -0.00668  -0.00661   2.08899
    A2        2.09497  -0.00127   0.00000  -0.00771  -0.00764   2.08733
    A3        2.09261   0.00235   0.00000   0.01438   0.01424   2.10684
    A4        2.09718  -0.00070   0.00000  -0.00890  -0.00890   2.08828
    A5        2.10182  -0.00070   0.00000  -0.00995  -0.00997   2.09184
    A6        2.08418   0.00140   0.00000   0.01884   0.01882   2.10300
    A7        2.08279  -0.00255   0.00000  -0.00878  -0.00846   2.07433
    A8        2.09328   0.00212   0.00000   0.01819   0.01799   2.11126
    A9        2.10712   0.00044   0.00000  -0.00943  -0.00963   2.09749
   A10        2.08318  -0.00958   0.00000  -0.02892  -0.03016   2.05302
   A11        2.11421   0.00456   0.00000   0.02058   0.01999   2.13420
   A12        2.08531   0.00505   0.00000   0.01082   0.00950   2.09481
   A13        1.87986   0.00655   0.00000   0.03617   0.03437   1.91423
   A14        1.87306   0.01159   0.00000   0.05988   0.05837   1.93143
   A15        1.86080  -0.03394   0.00000  -0.15423  -0.15337   1.70744
   A16        2.14281  -0.00265   0.00000  -0.00181  -0.00469   2.13812
   A17        1.84068   0.00775   0.00000   0.02878   0.02930   1.86998
   A18        1.84962   0.00402   0.00000  -0.00113   0.00047   1.85009
   A19        2.08062  -0.00102   0.00000  -0.00919  -0.00886   2.07176
   A20        2.11400  -0.00035   0.00000  -0.00598  -0.00616   2.10784
   A21        2.08854   0.00138   0.00000   0.01523   0.01505   2.10358
   A22        2.09888  -0.00264   0.00000  -0.00807  -0.00805   2.09082
   A23        2.09925  -0.00003   0.00000  -0.00911  -0.00912   2.09013
   A24        2.08505   0.00267   0.00000   0.01718   0.01717   2.10223
   A25        3.13901   0.00020   0.00000   0.00177   0.00177   3.14078
   A26        3.14286  -0.00014   0.00000  -0.00104  -0.00104   3.14182
    D1        3.14146  -0.00029   0.00000  -0.00853  -0.00861   3.13284
    D2        0.00199  -0.00003   0.00000   0.00107   0.00105   0.00305
    D3        0.00219  -0.00019   0.00000  -0.00393  -0.00406  -0.00187
    D4       -3.13728   0.00008   0.00000   0.00567   0.00561  -3.13167
    D5       -3.14094   0.00009   0.00000  -0.00210  -0.00225   3.14000
    D6        0.00079  -0.00001   0.00000  -0.00243  -0.00239  -0.00160
    D7       -0.00166  -0.00001   0.00000  -0.00670  -0.00680  -0.00846
    D8        3.14006  -0.00012   0.00000  -0.00703  -0.00694   3.13312
    D9        0.00515   0.00035   0.00000   0.00908   0.00912   0.01427
   D10       -3.13492   0.00028   0.00000   0.02269   0.02302  -3.11190
   D11       -3.13855   0.00009   0.00000  -0.00045  -0.00064  -3.13919
   D12        0.00456   0.00001   0.00000   0.01315   0.01326   0.01782
   D13       -3.12106  -0.00153   0.00000  -0.08976  -0.08927   3.07286
   D14       -0.01324  -0.00037   0.00000  -0.00395  -0.00383  -0.01707
   D15        0.01900  -0.00145   0.00000  -0.10345  -0.10304  -0.08403
   D16        3.12682  -0.00029   0.00000  -0.01764  -0.01760   3.10922
   D17        0.76160   0.00467   0.00000  -0.32880  -0.32802   0.43358
   D18       -1.57734  -0.00542   0.00000  -0.39794  -0.40012  -1.97746
   D19        2.73017   0.00053   0.00000  -0.35204  -0.35202   2.37815
   D20       -2.34678   0.00353   0.00000  -0.41338  -0.41168  -2.75846
   D21        1.59747  -0.00656   0.00000  -0.48252  -0.48378   1.11369
   D22       -0.37821  -0.00061   0.00000  -0.43662  -0.43567  -0.81389
   D23        0.01374   0.00018   0.00000  -0.00654  -0.00690   0.00684
   D24       -3.13552   0.00025   0.00000   0.00322   0.00265  -3.13287
   D25        3.12152   0.00107   0.00000   0.07861   0.07978  -3.08189
   D26       -0.02775   0.00114   0.00000   0.08837   0.08934   0.06159
   D27       -0.00618   0.00005   0.00000   0.01196   0.01217   0.00599
   D28        3.13528   0.00015   0.00000   0.01229   0.01231  -3.13559
   D29       -3.14022  -0.00001   0.00000   0.00244   0.00273  -3.13748
   D30        0.00124   0.00009   0.00000   0.00276   0.00287   0.00412
         Item               Value     Threshold  Converged?
 Maximum Force            0.033939     0.000450     NO 
 RMS     Force            0.005256     0.000300     NO 
 Maximum Displacement     0.935019     0.001800     NO 
 RMS     Displacement     0.202289     0.001200     NO 
 Predicted change in Energy=-7.087391D-03
 GradGradGradGradGradGradGradGradGradGradGradGradGradGradGradGradGradGrad

                          Input orientation:                          
 ---------------------------------------------------------------------
 Center     Atomic      Atomic             Coordinates (Angstroms)
 Number     Number       Type             X           Y           Z
 ---------------------------------------------------------------------
      1          7           0        4.411452    0.136566   -0.139641
      2          6           0        3.250854    0.096460   -0.107586
      3          6           0        1.820422    0.047892   -0.067258
      4          6           0        1.145787   -1.027083   -0.659782
      5          6           0       -0.241728   -1.078680   -0.611044
      6          6           0       -0.930866   -0.043806    0.015410
      7         16           0       -2.698335   -0.087468   -0.033895
      8          8           0       -3.146091   -1.448274   -0.205159
      9          8           0       -3.212663    1.003453   -0.825728
     10          9           0       -2.969452    0.310383    1.495931
     11          6           0       -0.276023    1.032332    0.612877
     12          6           0        1.110160    1.074247    0.572984
     13          1           0        1.709714   -1.818378   -1.143453
     14          1           0       -0.784948   -1.915415   -1.039137
     15          1           0       -0.837413    1.821775    1.101571
     16          1           0        1.649129    1.895994    1.033911
 ---------------------------------------------------------------------
                    Distance matrix (angstroms):
                    1          2          3          4          5
     1  N    0.000000
     2  C    1.161733   0.000000
     3  C    2.593557   1.431824   0.000000
     4  C    3.505595   2.449199   1.400638   0.000000
     5  C    4.832301   3.719214   2.411914   1.389329   0.000000
     6  C    5.347610   4.185879   2.754056   2.394829   1.392236
     7  S    7.114102   5.952488   4.520907   4.006481   2.711184
     8  O    7.722206   6.581537   5.188813   4.336393   2.955786
     9  O    7.703853   6.566234   5.178834   4.811102   3.634257
    10  F    7.561948   6.427226   5.045330   4.834367   3.716089
    11  C    4.831263   3.719380   2.413874   2.807560   2.440396
    12  C    3.505083   2.449860   1.402778   2.436507   2.804393
    13  H    3.482648   2.667347   2.157178   1.085403   2.153773
    14  H    5.658825   4.604686   3.403980   2.158885   1.085577
    15  H    5.650763   4.599207   3.402486   3.892485   3.420604
    16  H    3.478971   2.665870   2.158101   3.415601   3.889718
                    6          7          8          9         10
     6  C    0.000000
     7  S    1.768696   0.000000
     8  O    2.632186   1.442778   0.000000
     9  O    2.647804   1.442790   2.529921   0.000000
    10  F    2.544253   1.603794   2.453117   2.435076   0.000000
    11  C    1.394224   2.745881   3.880706   3.270211   2.924988
    12  C    2.393056   4.027719   5.008422   4.544030   4.251888
    13  H    3.385961   4.863955   4.959457   5.682735   5.778630
    14  H    2.153203   2.830715   2.547300   3.802517   4.019055
    15  H    2.160757   2.897848   4.210791   3.166378   2.642994
    16  H    3.384751   4.896404   5.976082   5.281279   4.904989
                   11         12         13         14         15
    11  C    0.000000
    12  C    1.387390   0.000000
    13  H    3.892864   3.416563   0.000000
    14  H    3.417217   3.889530   2.498727   0.000000
    15  H    1.084989   2.152032   4.977821   4.307200   0.000000
    16  H    2.151602   1.085454   4.305944   4.974847   2.488569
                   16
    16  H    0.000000
 Stoichiometry    C7H4FNO2S
 Framework group  C1[X(C7H4FNO2S)]
 Deg. of freedom    42
 Full point group                 C1      NOp   1
 Largest Abelian subgroup         C1      NOp   1
 Largest concise Abelian subgroup C1      NOp   1
                         Standard orientation:                         
 ---------------------------------------------------------------------
 Center     Atomic      Atomic             Coordinates (Angstroms)
 Number     Number       Type             X           Y           Z
 ---------------------------------------------------------------------
      1          7           0       -4.978638    0.030034    0.004322
      2          6           0       -3.817013    0.014236    0.005080
      3          6           0       -2.385305   -0.004077    0.005740
      4          6           0       -1.707171   -1.229606    0.006033
      5          6           0       -0.317979   -1.246413   -0.003890
      6          6           0        0.368574   -0.035251    0.003465
      7         16           0        2.133772   -0.093574    0.098120
      8          8           0        2.606571   -1.354998   -0.418484
      9          8           0        2.594741    0.452732    1.351396
     10          9           0        2.448997    1.019965   -1.012204
     11          6           0       -0.289641    1.193815    0.000315
     12          6           0       -1.676968    1.206700   -0.002208
     13          1           0       -2.269251   -2.158129    0.002891
     14          1           0        0.229109   -2.183648   -0.031508
     15          1           0        0.270124    2.123256   -0.001918
     16          1           0       -2.218313    2.147493   -0.010300
 ---------------------------------------------------------------------
 Rotational constants (GHZ):           2.5978411           0.4209794           0.3913139
 Standard basis: 6-31G(d) (6D, 7F)
 There are   192 symmetry adapted cartesian basis functions of A   symmetry.
 There are   192 symmetry adapted basis functions of A   symmetry.
   192 basis functions,   376 primitive gaussians,   192 cartesian basis functions
    47 alpha electrons       47 beta electrons
       nuclear repulsion energy       769.1876359218 Hartrees.
 NAtoms=   16 NActive=   16 NUniq=   16 SFac= 1.00D+00 NAtFMM=   60 NAOKFM=F Big=F
 Integral buffers will be    131072 words long.
 Raffenetti 2 integral format.
 Two-electron integral symmetry is turned on.
 R6APFD:  NTU= -4 IXU= 1 FactS= 1.050
 Nuclear repulsion after empirical dispersion term =      769.1737313544 Hartrees.
 One-electron integrals computed using PRISM.
 NBasis=   192 RedAO= T EigKep=  4.51D-04  NBF=   192
 NBsUse=   192 1.00D-06 EigRej= -1.00D+00 NBFU=   192
 Initial guess from the checkpoint file:  "YKZXWWMBQGHLNP-UHFFFAOYSA-N_conf_0_0.chk"
 B after Tr=    -0.000000   -0.000000    0.000000
         Rot=    0.995539    0.094217   -0.001948   -0.004609 Ang=  10.83 deg.
 ExpMin= 1.17D-01 ExpMax= 2.19D+04 ExpMxC= 3.30D+03 IAcc=2 IRadAn=         4 AccDes= 0.00D+00
 Harris functional with IExCor= 3731 and IRadAn=       4 diagonalized for initial guess.
 HarFok:  IExCor= 3731 AccDes= 0.00D+00 IRadAn=         4 IDoV= 1 UseB2=F ITyADJ=14
 ICtDFT=  3500011 ScaDFX=  1.000000  1.000000  1.000000  1.000000
 FoFCou: FMM=F IPFlag=           0 FMFlag=      100000 FMFlg1=           0
         NFxFlg=           0 DoJE=T BraDBF=F KetDBF=T FulRan=T
         wScrn=  0.000000 ICntrl=       500 IOpCl=  0 I1Cent=   200000004 NGrid=           0
         NMat0=    1 NMatS0=      1 NMatT0=    0 NMatD0=    1 NMtDS0=    0 NMtDT0=    0
 Petite list used in FoFCou.
 Keep R1 ints in memory in canonical form, NReq=175248284.
 Requested convergence on RMS density matrix=1.00D-08 within  32 cycles.
 Requested convergence on MAX density matrix=1.00D-06.
 Requested convergence on             energy=1.00D-06.
 No special actions if energy rises.
 Integral accuracy reduced to 1.0D-05 until final iterations.
 Initial convergence to 1.0D-05 achieved.  Increase integral accuracy.
 SCF Done:  E(RAPFD) =  -971.749522894     A.U. after   15 cycles
            NFock= 15  Conv=0.48D-08     -V/T= 2.0064
 QCSCF skips out because SCF is already converged.
 R6APFD:  NTU= -4 IXU= 1 FactS= 1.050
 Calling FoFJK, ICntrl=      2127 FMM=F ISym2X=0 I1Cent= 0 IOpClX= 0 NMat=1 NMatS=1 NMatT=0.
 ***** Axes restored to original set *****
 -------------------------------------------------------------------
 Center     Atomic                   Forces (Hartrees/Bohr)
 Number     Number              X              Y              Z
 -------------------------------------------------------------------
      1        7           0.000068655   -0.000015483    0.000007271
      2        6          -0.000103263    0.000084831   -0.000105920
      3        6           0.000362988   -0.000007560   -0.000053871
      4        6           0.000097140   -0.000317684    0.000641502
      5        6          -0.000099588   -0.000347833    0.000003855
      6        6           0.001327419   -0.000756887    0.000152171
      7       16           0.001236273   -0.000487180   -0.001547729
      8        8          -0.000731825   -0.000267588   -0.000121695
      9        8          -0.000379502    0.000787776    0.000571911
     10        9          -0.001474530    0.000100475    0.002047313
     11        6          -0.000044511    0.000608590   -0.001590915
     12        6          -0.000011118    0.000189416    0.000348751
     13        1           0.000068366    0.000074652    0.000018564
     14        1          -0.000082978    0.000315434   -0.000332244
     15        1          -0.000330251    0.000123643   -0.000018311
     16        1           0.000096726   -0.000084604   -0.000020653
 -------------------------------------------------------------------
 Cartesian Forces:  Max     0.002047313 RMS     0.000626837

 GradGradGradGradGradGradGradGradGradGradGradGradGradGradGradGradGradGrad
 Berny optimization.
 Using GEDIIS/GDIIS optimizer.
 FormGI is forming the generalized inverse of G from B-inverse, IUseBI=4.
 Internal  Forces:  Max     0.002400537 RMS     0.000561877
 Search for a local minimum.
 Step number   2 out of a maximum of   82
 All quantities printed in internal units (Hartrees-Bohrs-Radians)
 Mixed Optimization -- En-DIIS/RFO-DIIS
 Update second derivatives using D2CorX and points    1    2
 DE= -6.25D-03 DEPred=-7.09D-03 R= 8.82D-01
 TightC=F SS=  1.41D+00  RLast= 1.03D+00 DXNew= 5.0454D-01 3.0796D+00
 Trust test= 8.82D-01 RLast= 1.03D+00 DXMaxT set to 5.05D-01
 ITU=  1  0
 Use linear search instead of GDIIS.
     Eigenvalues ---   -0.00226   0.01301   0.01697   0.01712   0.01966
     Eigenvalues ---    0.02248   0.02492   0.02639   0.02740   0.02881
     Eigenvalues ---    0.06031   0.07356   0.11697   0.11801   0.12081
     Eigenvalues ---    0.12955   0.13484   0.15487   0.15986   0.16792
     Eigenvalues ---    0.17453   0.18381   0.18734   0.19055   0.20848
     Eigenvalues ---    0.23137   0.29209   0.32116   0.35909   0.36149
     Eigenvalues ---    0.36409   0.36586   0.36997   0.41303   0.42022
     Eigenvalues ---    0.43606   0.47198   0.47480   0.51065   0.67894
     Eigenvalues ---    0.68269   1.28194
 RFO step:  Lambda=-3.14548625D-03 EMin=-2.26331366D-03
 Quartic linear search produced a step of  0.09061.
 Iteration  1 RMS(Cart)=  0.10231757 RMS(Int)=  0.07127782
 Iteration  2 RMS(Cart)=  0.09986444 RMS(Int)=  0.01486918
 Iteration  3 RMS(Cart)=  0.02370077 RMS(Int)=  0.00043094
 Iteration  4 RMS(Cart)=  0.00043377 RMS(Int)=  0.00019549
 Iteration  5 RMS(Cart)=  0.00000015 RMS(Int)=  0.00019549
 Variable       Old X    -DE/DX   Delta X   Delta X   Delta X     New X
                                 (Linear)    (Quad)   (Total)
    R1        2.19536   0.00007   0.00025  -0.00105  -0.00080   2.19456
    R2        2.70576  -0.00003  -0.00044   0.00205   0.00161   2.70737
    R3        2.64682   0.00019  -0.00010  -0.00218  -0.00232   2.64450
    R4        2.65087   0.00014   0.00014   0.00405   0.00414   2.65501
    R5        2.62545   0.00038  -0.00129   0.00997   0.00868   2.63413
    R6        2.05111  -0.00003  -0.00068   0.00284   0.00216   2.05327
    R7        2.63094   0.00009  -0.00094  -0.00074  -0.00163   2.62931
    R8        2.05144  -0.00007  -0.00056   0.00129   0.00073   2.05218
    R9        3.34235   0.00132  -0.00029   0.00121   0.00092   3.34327
   R10        2.63470  -0.00009  -0.00047   0.00586   0.00543   2.64013
   R11        2.72646   0.00049  -0.00093   0.00514   0.00420   2.73066
   R12        2.72648   0.00042  -0.00078   0.00422   0.00344   2.72992
   R13        3.03073   0.00223   0.00210  -0.00349  -0.00139   3.02934
   R14        2.62179   0.00017  -0.00172   0.00304   0.00131   2.62310
   R15        2.05033   0.00025  -0.00051   0.00446   0.00395   2.05428
   R16        2.05121  -0.00002  -0.00069   0.00278   0.00209   2.05330
    A1        2.08899   0.00004  -0.00060   0.00185   0.00127   2.09026
    A2        2.08733   0.00004  -0.00069   0.00113   0.00046   2.08779
    A3        2.10684  -0.00008   0.00129  -0.00297  -0.00173   2.10512
    A4        2.08828   0.00015  -0.00081   0.00251   0.00172   2.09000
    A5        2.09184  -0.00017  -0.00090   0.00302   0.00211   2.09395
    A6        2.10300   0.00003   0.00170  -0.00552  -0.00382   2.09918
    A7        2.07433  -0.00020  -0.00077   0.00106   0.00038   2.07471
    A8        2.11126   0.00021   0.00163   0.00463   0.00621   2.11747
    A9        2.09749  -0.00001  -0.00087  -0.00572  -0.00665   2.09084
   A10        2.05302   0.00085  -0.00273   0.03783   0.03465   2.08767
   A11        2.13420   0.00005   0.00181  -0.00441  -0.00278   2.13142
   A12        2.09481  -0.00091   0.00086  -0.03485  -0.03433   2.06048
   A13        1.91423   0.00103   0.00311  -0.00661  -0.00375   1.91048
   A14        1.93143  -0.00004   0.00529  -0.02795  -0.02275   1.90868
   A15        1.70744   0.00240  -0.01390   0.06584   0.05211   1.75954
   A16        2.13812  -0.00045  -0.00042   0.01437   0.01359   2.15171
   A17        1.86998  -0.00127   0.00265  -0.01464  -0.01205   1.85794
   A18        1.85009  -0.00120   0.00004  -0.01820  -0.01768   1.83241
   A19        2.07176   0.00020  -0.00080   0.00296   0.00225   2.07401
   A20        2.10784  -0.00034  -0.00056   0.00078   0.00018   2.10802
   A21        2.10358   0.00013   0.00136  -0.00375  -0.00243   2.10115
   A22        2.09082  -0.00012  -0.00073   0.00087   0.00015   2.09097
   A23        2.09013  -0.00007  -0.00083   0.00214   0.00131   2.09144
   A24        2.10223   0.00019   0.00156  -0.00301  -0.00146   2.10077
   A25        3.14078   0.00002   0.00016  -0.00088  -0.00071   3.14007
   A26        3.14182   0.00003  -0.00009   0.00076   0.00066   3.14248
    D1        3.13284   0.00016  -0.00078   0.00035  -0.00036   3.13248
    D2        0.00305  -0.00003   0.00010  -0.00149  -0.00146   0.00159
    D3       -0.00187   0.00006  -0.00037  -0.00004  -0.00034  -0.00221
    D4       -3.13167  -0.00013   0.00051  -0.00188  -0.00144  -3.13311
    D5        3.14000  -0.00006  -0.00020  -0.00302  -0.00317   3.13683
    D6       -0.00160  -0.00006  -0.00022  -0.00103  -0.00130  -0.00290
    D7       -0.00846   0.00004  -0.00062  -0.00263  -0.00319  -0.01165
    D8        3.13312   0.00005  -0.00063  -0.00063  -0.00132   3.13180
    D9        0.01427  -0.00028   0.00083  -0.00060   0.00010   0.01437
   D10       -3.11190  -0.00021   0.00209   0.00240   0.00428  -3.10762
   D11       -3.13919  -0.00010  -0.00006   0.00132   0.00124  -3.13795
   D12        0.01782  -0.00003   0.00120   0.00432   0.00542   0.02324
   D13        3.07286   0.00025  -0.00809  -0.02890  -0.03763   3.03523
   D14       -0.01707   0.00043  -0.00035   0.00411   0.00381  -0.01326
   D15       -0.08403   0.00019  -0.00934  -0.03179  -0.04162  -0.12566
   D16        3.10922   0.00036  -0.00159   0.00122  -0.00019   3.10904
   D17        0.43358  -0.00044  -0.02972  -0.39803  -0.42768   0.00590
   D18       -1.97746  -0.00074  -0.03625  -0.38552  -0.42213  -2.39959
   D19        2.37815  -0.00049  -0.03189  -0.38721  -0.41888   1.95927
   D20       -2.75846  -0.00058  -0.03730  -0.42939  -0.46657   3.05815
   D21        1.11369  -0.00088  -0.04383  -0.41687  -0.46103   0.65266
   D22       -0.81389  -0.00063  -0.03947  -0.41857  -0.45778  -1.27167
   D23        0.00684  -0.00032  -0.00063  -0.00673  -0.00730  -0.00046
   D24       -3.13287  -0.00019   0.00024  -0.00450  -0.00409  -3.13696
   D25       -3.08189  -0.00020   0.00723   0.02494   0.03155  -3.05033
   D26        0.06159  -0.00007   0.00809   0.02717   0.03476   0.09635
   D27        0.00599   0.00009   0.00110   0.00587   0.00686   0.01285
   D28       -3.13559   0.00008   0.00112   0.00387   0.00498  -3.13061
   D29       -3.13748  -0.00005   0.00025   0.00366   0.00368  -3.13381
   D30        0.00412  -0.00005   0.00026   0.00165   0.00180   0.00591
         Item               Value     Threshold  Converged?
 Maximum Force            0.002401     0.000450     NO 
 RMS     Force            0.000562     0.000300     NO 
 Maximum Displacement     0.935927     0.001800     NO 
 RMS     Displacement     0.219636     0.001200     NO 
 Predicted change in Energy=-3.164463D-03
 GradGradGradGradGradGradGradGradGradGradGradGradGradGradGradGradGradGrad

                          Input orientation:                          
 ---------------------------------------------------------------------
 Center     Atomic      Atomic             Coordinates (Angstroms)
 Number     Number       Type             X           Y           Z
 ---------------------------------------------------------------------
      1          7           0        4.416789    0.153082   -0.167296
      2          6           0        3.257161    0.105637   -0.126645
      3          6           0        1.826564    0.048631   -0.074621
      4          6           0        1.157931   -1.078487   -0.565416
      5          6           0       -0.233382   -1.138312   -0.504679
      6          6           0       -0.929471   -0.059360    0.031263
      7         16           0       -2.697549   -0.042670   -0.029034
      8          8           0       -3.168901   -1.249783   -0.668358
      9          8           0       -3.151709    1.278466   -0.396783
     10          9           0       -3.052948   -0.184888    1.527649
     11          6           0       -0.278048    1.074070    0.524075
     12          6           0        1.108377    1.122845    0.476934
     13          1           0        1.724129   -1.906715   -0.982593
     14          1           0       -0.776393   -2.013366   -0.849263
     15          1           0       -0.843536    1.903020    0.942168
     16          1           0        1.640985    1.987830    0.862601
 ---------------------------------------------------------------------
                    Distance matrix (angstroms):
                    1          2          3          4          5
     1  N    0.000000
     2  C    1.161309   0.000000
     3  C    2.593986   1.432677   0.000000
     4  C    3.506482   2.449783   1.399409   0.000000
     5  C    4.837935   3.724810   2.416022   1.393923   0.000000
     6  C    5.354162   4.192857   2.760182   2.398311   1.391371
     7  S    7.118373   5.957356   4.525264   4.028071   2.738392
     8  O    7.730574   6.589756   5.195486   4.331445   2.942191
     9  O    7.655149   6.520898   5.138043   4.914943   3.790658
    10  F    7.667075   6.529822   5.141152   4.786538   3.604071
    11  C    4.834015   3.722768   2.416475   2.807585   2.440280
    12  C    3.507286   2.452813   1.404970   2.436147   2.806548
    13  H    3.486816   2.670654   2.158306   1.086544   2.156547
    14  H    5.668132   4.613233   3.409881   2.167067   1.085964
    15  H    5.653690   4.603115   3.406179   3.894621   3.422771
    16  H    3.483113   2.670821   2.161785   3.416852   3.893003
                    6          7          8          9         10
     6  C    0.000000
     7  S    1.769184   0.000000
     8  O    2.630897   1.445002   0.000000
     9  O    2.628943   1.444611   2.542852   0.000000
    10  F    2.600785   1.603058   2.443337   2.419628   0.000000
    11  C    1.397097   2.721585   3.896052   3.024514   3.208148
    12  C    2.397719   4.012419   5.023561   4.351544   4.486736
    13  H    3.388543   4.892359   4.946923   5.853405   5.664493
    14  H    2.148697   2.871804   2.517911   4.084485   3.765069
    15  H    2.165195   2.857675   4.235716   2.740533   3.095748
    16  H    3.389595   4.872455   5.996747   5.005912   5.214979
                   11         12         13         14         15
    11  C    0.000000
    12  C    1.388083   0.000000
    13  H    3.894078   3.418713   0.000000
    14  H    3.415650   3.891912   2.506345   0.000000
    15  H    1.087077   2.152924   4.981134   4.307182   0.000000
    16  H    2.152264   1.086558   4.310352   4.978329   2.487241
                   16
    16  H    0.000000
 Stoichiometry    C7H4FNO2S
 Framework group  C1[X(C7H4FNO2S)]
 Deg. of freedom    42
 Full point group                 C1      NOp   1
 Largest Abelian subgroup         C1      NOp   1
 Largest concise Abelian subgroup C1      NOp   1
                         Standard orientation:                         
 ---------------------------------------------------------------------
 Center     Atomic      Atomic             Coordinates (Angstroms)
 Number     Number       Type             X           Y           Z
 ---------------------------------------------------------------------
      1          7           0       -4.987547    0.038482    0.004920
      2          6           0       -3.826408    0.018716    0.002663
      3          6           0       -2.393908   -0.003492   -0.001174
      4          6           0       -1.718136   -1.228922   -0.002450
      5          6           0       -0.324454   -1.250194   -0.017211
      6          6           0        0.365977   -0.042221   -0.012910
      7         16           0        2.129219   -0.043536    0.131960
      8          8           0        2.603891   -1.405380    0.221949
      9          8           0        2.535463    0.999596    1.045056
     10          9           0        2.550711    0.489151   -1.320068
     11          6           0       -0.292679    1.189869   -0.009977
     12          6           0       -1.680656    1.206919   -0.011963
     13          1           0       -2.280189   -2.158800   -0.002026
     14          1           0        0.225548   -2.186002   -0.050061
     15          1           0        0.268684    2.120786   -0.010957
     16          1           0       -2.218356    2.151070   -0.020058
 ---------------------------------------------------------------------
 Rotational constants (GHZ):           2.6024488           0.4184062           0.3892785
 Standard basis: 6-31G(d) (6D, 7F)
 There are   192 symmetry adapted cartesian basis functions of A   symmetry.
 There are   192 symmetry adapted basis functions of A   symmetry.
   192 basis functions,   376 primitive gaussians,   192 cartesian basis functions
    47 alpha electrons       47 beta electrons
       nuclear repulsion energy       768.0316514026 Hartrees.
 NAtoms=   16 NActive=   16 NUniq=   16 SFac= 1.00D+00 NAtFMM=   60 NAOKFM=F Big=F
 Integral buffers will be    131072 words long.
 Raffenetti 2 integral format.
 Two-electron integral symmetry is turned on.
 R6APFD:  NTU= -4 IXU= 1 FactS= 1.050
 Nuclear repulsion after empirical dispersion term =      768.0177899499 Hartrees.
 One-electron integrals computed using PRISM.
 NBasis=   192 RedAO= T EigKep=  4.56D-04  NBF=   192
 NBsUse=   192 1.00D-06 EigRej= -1.00D+00 NBFU=   192
 Initial guess from the checkpoint file:  "YKZXWWMBQGHLNP-UHFFFAOYSA-N_conf_0_0.chk"
 B after Tr=     0.000000    0.000000   -0.000000
         Rot=    0.994245    0.107088    0.002777    0.000751 Ang=  12.30 deg.
 ExpMin= 1.17D-01 ExpMax= 2.19D+04 ExpMxC= 3.30D+03 IAcc=2 IRadAn=         4 AccDes= 0.00D+00
 Harris functional with IExCor= 3731 and IRadAn=       4 diagonalized for initial guess.
 HarFok:  IExCor= 3731 AccDes= 0.00D+00 IRadAn=         4 IDoV= 1 UseB2=F ITyADJ=14
 ICtDFT=  3500011 ScaDFX=  1.000000  1.000000  1.000000  1.000000
 FoFCou: FMM=F IPFlag=           0 FMFlag=      100000 FMFlg1=           0
         NFxFlg=           0 DoJE=T BraDBF=F KetDBF=T FulRan=T
         wScrn=  0.000000 ICntrl=       500 IOpCl=  0 I1Cent=   200000004 NGrid=           0
         NMat0=    1 NMatS0=      1 NMatT0=    0 NMatD0=    1 NMtDS0=    0 NMtDT0=    0
 Petite list used in FoFCou.
 Keep R1 ints in memory in canonical form, NReq=175248284.
 Requested convergence on RMS density matrix=1.00D-08 within  32 cycles.
 Requested convergence on MAX density matrix=1.00D-06.
 Requested convergence on             energy=1.00D-06.
 No special actions if energy rises.
 Integral accuracy reduced to 1.0D-05 until final iterations.
 Initial convergence to 1.0D-05 achieved.  Increase integral accuracy.
 SCF Done:  E(RAPFD) =  -971.750503790     A.U. after   15 cycles
            NFock= 15  Conv=0.85D-08     -V/T= 2.0064
 QCSCF skips out because SCF is already converged.
 R6APFD:  NTU= -4 IXU= 1 FactS= 1.050
 Calling FoFJK, ICntrl=      2127 FMM=F ISym2X=0 I1Cent= 0 IOpClX= 0 NMat=1 NMatS=1 NMatT=0.
 ***** Axes restored to original set *****
 -------------------------------------------------------------------
 Center     Atomic                   Forces (Hartrees/Bohr)
 Number     Number              X              Y              Z
 -------------------------------------------------------------------
      1        7           0.000998547   -0.000002015   -0.000003803
      2        6          -0.001720975    0.000091149   -0.000220780
      3        6          -0.000397773    0.001403405    0.000698241
      4        6          -0.003248930   -0.002228971    0.000721094
      5        6           0.000761886   -0.001320677    0.001111221
      6        6           0.001991933    0.004869664    0.001595227
      7       16          -0.002679767   -0.001290291   -0.003686143
      8        8           0.000151452    0.002089634    0.000884490
      9        8           0.000746567   -0.001739719   -0.000514604
     10        9           0.002334612   -0.001709726    0.002138690
     11        6           0.001190245   -0.000335678    0.000222671
     12        6          -0.000010794   -0.000188713    0.000783992
     13        1          -0.000250922    0.000769280    0.000322477
     14        1           0.000366788    0.000909483   -0.001809238
     15        1          -0.000134165   -0.000603980   -0.001695846
     16        1          -0.000098705   -0.000712844   -0.000547687
 -------------------------------------------------------------------
 Cartesian Forces:  Max     0.004869664 RMS     0.001528631

 GradGradGradGradGradGradGradGradGradGradGradGradGradGradGradGradGradGrad
 Berny optimization.
 Using GEDIIS/GDIIS optimizer.
 FormGI is forming the generalized inverse of G from B-inverse, IUseBI=4.
 Internal  Forces:  Max     0.006756312 RMS     0.001354807
 Search for a local minimum.
 Step number   3 out of a maximum of   82
 All quantities printed in internal units (Hartrees-Bohrs-Radians)
 Mixed Optimization -- RFO/linear search
 Update second derivatives using D2CorX and points    2    3
 DE= -9.81D-04 DEPred=-3.16D-03 R= 3.10D-01
 Trust test= 3.10D-01 RLast= 1.09D+00 DXMaxT set to 5.05D-01
 ITU=  0  1  0
 Use linear search instead of GDIIS.
     Eigenvalues ---    0.00083   0.01477   0.01702   0.01758   0.02036
     Eigenvalues ---    0.02249   0.02594   0.02644   0.02746   0.02881
     Eigenvalues ---    0.06033   0.07357   0.11699   0.11871   0.12144
     Eigenvalues ---    0.12955   0.13500   0.15501   0.16138   0.16960
     Eigenvalues ---    0.17964   0.18675   0.19031   0.19982   0.23133
     Eigenvalues ---    0.24094   0.29345   0.32914   0.35955   0.36150
     Eigenvalues ---    0.36412   0.36721   0.37008   0.41989   0.42645
     Eigenvalues ---    0.44109   0.47434   0.47960   0.52159   0.68219
     Eigenvalues ---    0.68736   1.28240
 RFO step:  Lambda=-1.09500383D-03 EMin= 8.25404511D-04
 Quartic linear search produced a step of  0.03846.
 Iteration  1 RMS(Cart)=  0.09054134 RMS(Int)=  0.00528799
 Iteration  2 RMS(Cart)=  0.00574687 RMS(Int)=  0.00004536
 Iteration  3 RMS(Cart)=  0.00001792 RMS(Int)=  0.00004405
 Iteration  4 RMS(Cart)=  0.00000000 RMS(Int)=  0.00004405
 Variable       Old X    -DE/DX   Delta X   Delta X   Delta X     New X
                                 (Linear)    (Quad)   (Total)
    R1        2.19456   0.00100  -0.00003   0.00060   0.00057   2.19512
    R2        2.70737  -0.00071   0.00006  -0.00112  -0.00106   2.70631
    R3        2.64450   0.00073  -0.00009   0.00228   0.00217   2.64667
    R4        2.65501  -0.00122   0.00016  -0.00124  -0.00110   2.65391
    R5        2.63413  -0.00355   0.00033  -0.00491  -0.00458   2.62955
    R6        2.05327  -0.00084   0.00008  -0.00158  -0.00150   2.05177
    R7        2.62931  -0.00056  -0.00006   0.00040   0.00036   2.62967
    R8        2.05218  -0.00034   0.00003  -0.00103  -0.00100   2.05118
    R9        3.34327  -0.00054   0.00004   0.00231   0.00234   3.34562
   R10        2.64013  -0.00137   0.00021  -0.00286  -0.00263   2.63750
   R11        2.73066  -0.00219   0.00016  -0.00243  -0.00227   2.72839
   R12        2.72992  -0.00169   0.00013  -0.00142  -0.00128   2.72864
   R13        3.02934   0.00171  -0.00005   0.00799   0.00793   3.03727
   R14        2.62310  -0.00128   0.00005  -0.00150  -0.00145   2.62165
   R15        2.05428  -0.00104   0.00015  -0.00126  -0.00111   2.05317
   R16        2.05330  -0.00081   0.00008  -0.00166  -0.00158   2.05172
    A1        2.09026  -0.00034   0.00005  -0.00192  -0.00187   2.08839
    A2        2.08779  -0.00029   0.00002  -0.00082  -0.00081   2.08698
    A3        2.10512   0.00063  -0.00007   0.00279   0.00270   2.10781
    A4        2.09000  -0.00014   0.00007  -0.00072  -0.00067   2.08933
    A5        2.09395  -0.00016   0.00008  -0.00299  -0.00293   2.09103
    A6        2.09918   0.00030  -0.00015   0.00381   0.00365   2.10283
    A7        2.07471  -0.00057   0.00001  -0.00264  -0.00263   2.07208
    A8        2.11747  -0.00011   0.00024   0.00133   0.00150   2.11897
    A9        2.09084   0.00068  -0.00026   0.00162   0.00129   2.09214
   A10        2.08767  -0.00359   0.00133  -0.00280  -0.00167   2.08600
   A11        2.13142   0.00118  -0.00011   0.00426   0.00402   2.13544
   A12        2.06048   0.00247  -0.00132   0.00138  -0.00015   2.06033
   A13        1.91048   0.00158  -0.00014   0.00497   0.00480   1.91528
   A14        1.90868   0.00012  -0.00088   0.00447   0.00358   1.91226
   A15        1.75954  -0.00676   0.00200  -0.01476  -0.01275   1.74680
   A16        2.15171  -0.00053   0.00052  -0.00021   0.00028   2.15199
   A17        1.85794   0.00092  -0.00046  -0.00395  -0.00441   1.85352
   A18        1.83241   0.00331  -0.00068   0.00557   0.00492   1.83732
   A19        2.07401  -0.00038   0.00009  -0.00097  -0.00087   2.07313
   A20        2.10802  -0.00055   0.00001  -0.00521  -0.00523   2.10279
   A21        2.10115   0.00093  -0.00009   0.00623   0.00611   2.10725
   A22        2.09097  -0.00071   0.00001  -0.00249  -0.00249   2.08848
   A23        2.09144  -0.00001   0.00005  -0.00144  -0.00139   2.09005
   A24        2.10077   0.00072  -0.00006   0.00392   0.00387   2.10464
   A25        3.14007   0.00005  -0.00003   0.00083   0.00080   3.14087
   A26        3.14248   0.00008   0.00003   0.00004   0.00007   3.14255
    D1        3.13248   0.00036  -0.00001   0.00620   0.00618   3.13866
    D2        0.00159  -0.00002  -0.00006  -0.00491  -0.00495  -0.00336
    D3       -0.00221   0.00004  -0.00001  -0.00346  -0.00346  -0.00568
    D4       -3.13311  -0.00035  -0.00006  -0.01457  -0.01459   3.13549
    D5        3.13683  -0.00021  -0.00012   0.00003  -0.00007   3.13676
    D6       -0.00290  -0.00001  -0.00005   0.00355   0.00350   0.00060
    D7       -0.01165   0.00012  -0.00012   0.00967   0.00956  -0.00209
    D8        3.13180   0.00032  -0.00005   0.01319   0.01313  -3.13825
    D9        0.01437  -0.00039   0.00000  -0.01140  -0.01138   0.00299
   D10       -3.10762  -0.00068   0.00016  -0.02972  -0.02956  -3.13718
   D11       -3.13795  -0.00000   0.00005  -0.00030  -0.00022  -3.13817
   D12        0.02324  -0.00029   0.00021  -0.01862  -0.01839   0.00485
   D13        3.03523   0.00142  -0.00145   0.05716   0.05571   3.09094
   D14       -0.01326   0.00058   0.00015   0.02067   0.02082   0.00756
   D15       -0.12566   0.00170  -0.00160   0.07520   0.07360  -0.05205
   D16        3.10904   0.00086  -0.00001   0.03871   0.03872  -3.13543
   D17        0.00590  -0.00000  -0.01645  -0.16525  -0.18165  -0.17575
   D18       -2.39959  -0.00081  -0.01624  -0.17358  -0.18980  -2.58939
   D19        1.95927  -0.00152  -0.01611  -0.17469  -0.19076   1.76851
   D20        3.05815   0.00075  -0.01795  -0.13007  -0.14803   2.91012
   D21        0.65266  -0.00005  -0.01773  -0.13839  -0.15618   0.49648
   D22       -1.27167  -0.00076  -0.01761  -0.13951  -0.15714  -1.42880
   D23       -0.00046  -0.00043  -0.00028  -0.01453  -0.01480  -0.01525
   D24       -3.13696  -0.00067  -0.00016  -0.02491  -0.02502   3.12120
   D25       -3.05033  -0.00095   0.00121  -0.05026  -0.04911  -3.09945
   D26        0.09635  -0.00119   0.00134  -0.06064  -0.05934   0.03701
   D27        0.01285   0.00007   0.00026  -0.00086  -0.00063   0.01222
   D28       -3.13061  -0.00013   0.00019  -0.00440  -0.00424  -3.13485
   D29       -3.13381   0.00030   0.00014   0.00944   0.00959  -3.12422
   D30        0.00591   0.00010   0.00007   0.00590   0.00598   0.01189
         Item               Value     Threshold  Converged?
 Maximum Force            0.006756     0.000450     NO 
 RMS     Force            0.001355     0.000300     NO 
 Maximum Displacement     0.410111     0.001800     NO 
 RMS     Displacement     0.090971     0.001200     NO 
 Predicted change in Energy=-6.395306D-04
 GradGradGradGradGradGradGradGradGradGradGradGradGradGradGradGradGradGrad

                          Input orientation:                          
 ---------------------------------------------------------------------
 Center     Atomic      Atomic             Coordinates (Angstroms)
 Number     Number       Type             X           Y           Z
 ---------------------------------------------------------------------
      1          7           0        4.416087    0.122518   -0.121276
      2          6           0        3.255289    0.087579   -0.095505
      3          6           0        1.824190    0.045025   -0.062306
      4          6           0        1.153790   -1.093455   -0.527055
      5          6           0       -0.236576   -1.137409   -0.492060
      6          6           0       -0.928107   -0.036956    0.005157
      7         16           0       -2.698447   -0.038645   -0.011967
      8          8           0       -3.177474   -1.156934   -0.789481
      9          8           0       -3.181620    1.311177   -0.183620
     10          9           0       -2.994405   -0.401910    1.525472
     11          6           0       -0.277297    1.110550    0.460861
     12          6           0        1.109251    1.147568    0.433236
     13          1           0        1.721926   -1.934735   -0.912183
     14          1           0       -0.783986   -2.007202   -0.841304
     15          1           0       -0.848313    1.959893    0.825577
     16          1           0        1.645690    2.022935    0.786454
 ---------------------------------------------------------------------
                    Distance matrix (angstroms):
                    1          2          3          4          5
     1  N    0.000000
     2  C    1.161609   0.000000
     3  C    2.593725   1.432116   0.000000
     4  C    3.505114   2.448954   1.400559   0.000000
     5  C    4.834477   3.721689   2.414456   1.391500   0.000000
     6  C    5.348067   4.186459   2.754344   2.394522   1.391559
     7  S    7.117198   5.955660   4.523691   4.027116   2.738353
     8  O    7.729532   6.588692   5.195203   4.339671   2.955964
     9  O    7.690380   6.552767   5.164881   4.969505   3.842394
    10  F    7.609349   6.475017   5.093098   4.679596   3.495285
    11  C    4.831453   3.719566   2.413564   2.807423   2.441933
    12  C    3.506191   2.451249   1.404386   2.438509   2.808655
    13  H    3.480851   2.666068   2.156896   1.085751   2.155914
    14  H    5.665237   4.610864   3.408967   2.165332   1.085435
    15  H    5.655651   4.603640   3.405485   3.893709   3.421063
    16  H    3.480037   2.667258   2.159719   3.417479   3.894265
                    6          7          8          9         10
     6  C    0.000000
     7  S    1.770424   0.000000
     8  O    2.635423   1.443802   0.000000
     9  O    2.632759   1.443932   2.541389   0.000000
    10  F    2.591166   1.607257   2.441841   2.427079   0.000000
    11  C    1.395704   2.721431   3.887913   2.981728   3.286885
    12  C    2.395241   4.012963   5.018145   4.338071   4.520383
    13  H    3.386112   4.893388   4.962273   5.925497   5.525893
    14  H    2.149218   2.868480   2.540556   4.146425   3.614491
    15  H    2.160292   2.849321   4.212840   2.623668   3.267060
    16  H    3.387921   4.874332   5.988160   4.974994   5.287391
                   11         12         13         14         15
    11  C    0.000000
    12  C    1.387317   0.000000
    13  H    3.893058   3.418496   0.000000
    14  H    3.416540   3.893761   2.507962   0.000000
    15  H    1.086491   2.155426   4.979365   4.303543   0.000000
    16  H    2.153215   1.085724   4.307474   4.979451   2.495107
                   16
    16  H    0.000000
 Stoichiometry    C7H4FNO2S
 Framework group  C1[X(C7H4FNO2S)]
 Deg. of freedom    42
 Full point group                 C1      NOp   1
 Largest Abelian subgroup         C1      NOp   1
 Largest concise Abelian subgroup C1      NOp   1
                         Standard orientation:                         
 ---------------------------------------------------------------------
[...]
    11  C   -0.000064   0.005068  -0.039285  -0.023394  -0.030499   0.419628
    12  C    0.000352  -0.042641   0.472399  -0.043259  -0.023401  -0.055426
    13  H    0.000476  -0.005402  -0.034025   0.369389  -0.036217   0.004028
    14  H   -0.000000  -0.000140   0.002835  -0.027621   0.363787  -0.036965
    15  H   -0.000000  -0.000140   0.002835   0.000327   0.003784  -0.036975
    16  H    0.000476  -0.005402  -0.034023   0.004090   0.000262   0.004028
               7          8          9         10         11         12
     1  N   -0.000000  -0.000000  -0.000000  -0.000000  -0.000064   0.000352
     2  C   -0.000006   0.000000   0.000000  -0.000000   0.005068  -0.042641
     3  C   -0.000331  -0.000008  -0.000008  -0.000009  -0.039285   0.472399
     4  C    0.001981   0.000628  -0.000049  -0.000026  -0.023394  -0.043259
     5  C   -0.026746   0.005083   0.001445  -0.001455  -0.030499  -0.023401
     6  C    0.234057  -0.059842  -0.059838  -0.044048   0.419628  -0.055426
     7  S   13.464420   0.449496   0.449497   0.210340  -0.026729   0.001981
     8  O    0.449496   8.148398  -0.037956  -0.034889   0.001448  -0.000049
     9  O    0.449497  -0.037956   8.148389  -0.034894   0.005083   0.000626
    10  F    0.210340  -0.034889  -0.034894   9.204704  -0.001454  -0.000026
    11  C   -0.026729   0.001448   0.005083  -0.001454   5.101626   0.414878
    12  C    0.001981  -0.000049   0.000626  -0.000026   0.414878   5.066256
    13  H   -0.000018   0.000003   0.000000   0.000000   0.000262   0.004090
    14  H   -0.002970   0.007867   0.000062  -0.000110   0.003785   0.000326
    15  H   -0.002958   0.000062   0.007853  -0.000111   0.363795  -0.027622
    16  H   -0.000018   0.000000   0.000003   0.000000  -0.036216   0.369386
              13         14         15         16
     1  N    0.000476  -0.000000  -0.000000   0.000476
     2  C   -0.005402  -0.000140  -0.000140  -0.005402
     3  C   -0.034025   0.002835   0.002835  -0.034023
     4  C    0.369389  -0.027621   0.000327   0.004090
     5  C   -0.036217   0.363787   0.003784   0.000262
     6  C    0.004028  -0.036965  -0.036975   0.004028
     7  S   -0.000018  -0.002970  -0.002958  -0.000018
     8  O    0.000003   0.007867   0.000062   0.000000
     9  O    0.000000   0.000062   0.007853   0.000003
    10  F    0.000000  -0.000110  -0.000111   0.000000
    11  C    0.000262   0.003785   0.363795  -0.036216
    12  C    0.004090   0.000326  -0.027622   0.369386
    13  H    0.469745  -0.003554   0.000012  -0.000109
    14  H   -0.003554   0.444309  -0.000110   0.000012
    15  H    0.000012  -0.000110   0.444343  -0.003554
    16  H   -0.000109   0.000012  -0.003554   0.469742
 Mulliken charges:
               1
     1  N   -0.472039
     2  C    0.252902
     3  C    0.073642
     4  C   -0.137875
     5  C   -0.157942
     6  C   -0.212001
     7  S    1.248002
     8  O   -0.480240
     9  O   -0.480213
    10  F   -0.298023
    11  C   -0.157931
    12  C   -0.137870
    13  H    0.231320
    14  H    0.248487
    15  H    0.248459
    16  H    0.231323
 Sum of Mulliken charges =  -0.00000
 Mulliken charges with hydrogens summed into heavy atoms:
               1
     1  N   -0.472039
     2  C    0.252902
     3  C    0.073642
     4  C    0.093445
     5  C    0.090545
     6  C   -0.212001
     7  S    1.248002
     8  O   -0.480240
     9  O   -0.480213
    10  F   -0.298023
    11  C    0.090528
    12  C    0.093453
 Electronic spatial extent (au):  <R**2>=           2622.0619
 Charge=             -0.0000 electrons
 Dipole moment (field-independent basis, Debye):
    X=             -0.6268    Y=              0.0007    Z=             -0.5413  Tot=              0.8282
 Quadrupole moment (field-independent basis, Debye-Ang):
   XX=           -108.5254   YY=            -66.1282   ZZ=            -75.4087
   XY=              0.0012   XZ=             -2.8541   YZ=             -0.0016
 Traceless Quadrupole moment (field-independent basis, Debye-Ang):
   XX=            -25.1713   YY=             17.2259   ZZ=              7.9454
   XY=              0.0012   XZ=             -2.8541   YZ=             -0.0016
 Octapole moment (field-independent basis, Debye-Ang**2):
  XXX=            176.6688  YYY=              0.0106  ZZZ=             -5.8136  XYY=             -8.2812
  XXY=              0.0044  XXZ=             -7.3409  XZZ=             13.1312  YZZ=             -0.0033
  YYZ=             -4.9753  XYZ=             -0.0044
 Hexadecapole moment (field-independent basis, Debye-Ang**3):
 XXXX=          -3712.4090 YYYY=           -374.4153 ZZZZ=           -156.1966 XXXY=              0.0131
 XXXZ=            -51.3120 YYYX=              0.0241 YYYZ=             -0.0054 ZZZX=            -13.5236
 ZZZY=             -0.0074 XXYY=           -524.5455 XXZZ=           -493.0238 YYZZ=           -101.8426
 XXYZ=             -0.0150 YYXZ=            -13.6747 ZZXY=             -0.0076
 N-N= 7.688277603397D+02 E-N=-3.823355425144D+03  KE= 9.658001846499D+02
 Evaluate density.
 Using the total density.
 Monte-Carlo method of calculating molar volume:
 based on  0.001 e/bohr**3 density envelope.
 Number of points per bohr**3 =   20 CutOff= 1.00D-04
 Using the CI density.
 There are       405 points.  Will hold       405 in memory.
 LenV=   536754476 MDV=   536870912.
 Box volume = 8315.282 fraction occupied=0.126
 Integrated density= 3.7647997868557674D+01 error=-5.6352002131442326D+01
 Molar volume = 1047.110 bohr**3/mol ( 93.443 cm**3/mol)
 Recommended a0 for SCRF calculation =  4.17 angstrom (  7.88 bohr)
 ******************************Gaussian NBO Version 3.1******************************
             N A T U R A L   A T O M I C   O R B I T A L   A N D
          N A T U R A L   B O N D   O R B I T A L   A N A L Y S I S
 ******************************Gaussian NBO Version 3.1******************************
       /RESON  / : Allow strongly delocalized NBO set

 Analyzing the CI density

 Job title: YKZXWWMBQGHLNP-UHFFFAOYSA-N_conf_0                              

 Storage needed:    111568 in NPA ( 536869472 available)


 NATURAL POPULATIONS:  Natural atomic orbital occupancies 
                                                          
   NAO  Atom  No  lang   Type(AO)    Occupancy
 --------------------------------------------
     1    N    1  S      Cor( 1S)     1.99966
     2    N    1  S      Val( 2S)     1.59450
     3    N    1  S      Ryd( 3S)     0.00433
     4    N    1  S      Ryd( 4S)     0.00000
     5    N    1  px     Val( 2p)     1.51182
     6    N    1  px     Ryd( 3p)     0.00212
     7    N    1  py     Val( 2p)     1.05885
     8    N    1  py     Ryd( 3p)     0.00034
     9    N    1  pz     Val( 2p)     1.10053
    10    N    1  pz     Ryd( 3p)     0.00137
    11    N    1  dxy    Ryd( 3d)     0.00441
    12    N    1  dxz    Ryd( 3d)     0.00437
    13    N    1  dyz    Ryd( 3d)     0.00000
    14    N    1  dx2y2  Ryd( 3d)     0.00388
    15    N    1  dz2    Ryd( 3d)     0.00132
 
    16    C    2  S      Cor( 1S)     1.99940
    17    C    2  S      Val( 2S)     0.83213
    18    C    2  S      Ryd( 3S)     0.00742
    19    C    2  S      Ryd( 4S)     0.00024
    20    C    2  px     Val( 2p)     0.99515
    21    C    2  px     Ryd( 3p)     0.01779
    22    C    2  py     Val( 2p)     0.93683
    23    C    2  py     Ryd( 3p)     0.00468
    24    C    2  pz     Val( 2p)     0.96150
    25    C    2  pz     Ryd( 3p)     0.00080
    26    C    2  dxy    Ryd( 3d)     0.00077
    27    C    2  dxz    Ryd( 3d)     0.00135
    28    C    2  dyz    Ryd( 3d)     0.00002
    29    C    2  dx2y2  Ryd( 3d)     0.00044
    30    C    2  dz2    Ryd( 3d)     0.00016
 
    31    C    3  S      Cor( 1S)     1.99891
    32    C    3  S      Val( 2S)     0.90149
    33    C    3  S      Ryd( 3S)     0.00085
    34    C    3  S      Ryd( 4S)     0.00007
    35    C    3  px     Val( 2p)     1.08677
    36    C    3  px     Ryd( 3p)     0.00588
    37    C    3  py     Val( 2p)     1.10911
    38    C    3  py     Ryd( 3p)     0.00255
    39    C    3  pz     Val( 2p)     1.07608
    40    C    3  pz     Ryd( 3p)     0.00216
    41    C    3  dxy    Ryd( 3d)     0.00075
    42    C    3  dxz    Ryd( 3d)     0.00081
    43    C    3  dyz    Ryd( 3d)     0.00067
    44    C    3  dx2y2  Ryd( 3d)     0.00089
    45    C    3  dz2    Ryd( 3d)     0.00036
 
    46    C    4  S      Cor( 1S)     1.99909
    47    C    4  S      Val( 2S)     0.97530
    48    C    4  S      Ryd( 3S)     0.00082
    49    C    4  S      Ryd( 4S)     0.00004
    50    C    4  px     Val( 2p)     1.07848
    51    C    4  px     Ryd( 3p)     0.00406
    52    C    4  py     Val( 2p)     1.15848
    53    C    4  py     Ryd( 3p)     0.00523
    54    C    4  pz     Val( 2p)     0.91118
    55    C    4  pz     Ryd( 3p)     0.00342
    56    C    4  dxy    Ryd( 3d)     0.00079
    57    C    4  dxz    Ryd( 3d)     0.00070
    58    C    4  dyz    Ryd( 3d)     0.00045
    59    C    4  dx2y2  Ryd( 3d)     0.00066
    60    C    4  dz2    Ryd( 3d)     0.00043
 
    61    C    5  S      Cor( 1S)     1.99904
    62    C    5  S      Val( 2S)     0.97735
    63    C    5  S      Ryd( 3S)     0.00106
    64    C    5  S      Ryd( 4S)     0.00005
    65    C    5  px     Val( 2p)     1.09552
    66    C    5  px     Ryd( 3p)     0.00585
    67    C    5  py     Val( 2p)     1.17525
    68    C    5  py     Ryd( 3p)     0.00553
    69    C    5  pz     Val( 2p)     0.89753
    70    C    5  pz     Ryd( 3p)     0.00420
    71    C    5  dxy    Ryd( 3d)     0.00080
    72    C    5  dxz    Ryd( 3d)     0.00074
    73    C    5  dyz    Ryd( 3d)     0.00049
    74    C    5  dx2y2  Ryd( 3d)     0.00066
    75    C    5  dz2    Ryd( 3d)     0.00044
 
    76    C    6  S      Cor( 1S)     1.99875
    77    C    6  S      Val( 2S)     0.98755
    78    C    6  S      Ryd( 3S)     0.00243
    79    C    6  S      Ryd( 4S)     0.00007
    80    C    6  px     Val( 2p)     1.12075
    81    C    6  px     Ryd( 3p)     0.00720
    82    C    6  py     Val( 2p)     1.11367
    83    C    6  py     Ryd( 3p)     0.01041
    84    C    6  pz     Val( 2p)     1.14307
    85    C    6  pz     Ryd( 3p)     0.00411
    86    C    6  dxy    Ryd( 3d)     0.00058
    87    C    6  dxz    Ryd( 3d)     0.00071
    88    C    6  dyz    Ryd( 3d)     0.00076
    89    C    6  dx2y2  Ryd( 3d)     0.00091
    90    C    6  dz2    Ryd( 3d)     0.00042
 
    91    S    7  S      Cor( 1S)     2.00000
    92    S    7  S      Cor( 2S)     1.99903
    93    S    7  S      Val( 3S)     1.02078
    94    S    7  S      Ryd( 4S)     0.00452
    95    S    7  S      Ryd( 5S)     0.00034
    96    S    7  px     Cor( 2p)     1.99991
    97    S    7  px     Val( 3p)     0.88187
    98    S    7  px     Ryd( 4p)     0.00978
    99    S    7  py     Cor( 2p)     1.99990
   100    S    7  py     Val( 3p)     0.68986
   101    S    7  py     Ryd( 4p)     0.01478
   102    S    7  pz     Cor( 2p)     1.99986
   103    S    7  pz     Val( 3p)     0.77600
   104    S    7  pz     Ryd( 4p)     0.00755
   105    S    7  dxy    Ryd( 3d)     0.03331
   106    S    7  dxz    Ryd( 3d)     0.01842
   107    S    7  dyz    Ryd( 3d)     0.03738
   108    S    7  dx2y2  Ryd( 3d)     0.04570
   109    S    7  dz2    Ryd( 3d)     0.03625
 
   110    O    8  S      Cor( 1S)     1.99988
   111    O    8  S      Val( 2S)     1.82761
   112    O    8  S      Ryd( 3S)     0.00117
   113    O    8  S      Ryd( 4S)     0.00012
   114    O    8  px     Val( 2p)     1.76461
   115    O    8  px     Ryd( 3p)     0.00082
   116    O    8  py     Val( 2p)     1.56857
   117    O    8  py     Ryd( 3p)     0.00074
   118    O    8  pz     Val( 2p)     1.71509
   119    O    8  pz     Ryd( 3p)     0.00063
   120    O    8  dxy    Ryd( 3d)     0.00526
   121    O    8  dxz    Ryd( 3d)     0.00174
   122    O    8  dyz    Ryd( 3d)     0.00534
   123    O    8  dx2y2  Ryd( 3d)     0.00527
   124    O    8  dz2    Ryd( 3d)     0.00279
 
   125    O    9  S      Cor( 1S)     1.99988
   126    O    9  S      Val( 2S)     1.82761
   127    O    9  S      Ryd( 3S)     0.00117
   128    O    9  S      Ryd( 4S)     0.00012
   129    O    9  px     Val( 2p)     1.76455
   130    O    9  px     Ryd( 3p)     0.00082
   131    O    9  py     Val( 2p)     1.56880
   132    O    9  py     Ryd( 3p)     0.00074
   133    O    9  pz     Val( 2p)     1.71490
   134    O    9  pz     Ryd( 3p)     0.00063
   135    O    9  dxy    Ryd( 3d)     0.00526
   136    O    9  dxz    Ryd( 3d)     0.00175
   137    O    9  dyz    Ryd( 3d)     0.00534
   138    O    9  dx2y2  Ryd( 3d)     0.00526
   139    O    9  dz2    Ryd( 3d)     0.00279
 
   140    F   10  S      Cor( 1S)     1.99997
   141    F   10  S      Val( 2S)     1.92856
   142    F   10  S      Ryd( 3S)     0.00257
   143    F   10  S      Ryd( 4S)     0.00013
   144    F   10  px     Val( 2p)     1.93954
   145    F   10  px     Ryd( 3p)     0.00016
   146    F   10  py     Val( 2p)     1.95214
   147    F   10  py     Ryd( 3p)     0.00005
   148    F   10  pz     Val( 2p)     1.67335
   149    F   10  pz     Ryd( 3p)     0.00045
   150    F   10  dxy    Ryd( 3d)     0.00015
   151    F   10  dxz    Ryd( 3d)     0.00199
   152    F   10  dyz    Ryd( 3d)     0.00187
   153    F   10  dx2y2  Ryd( 3d)     0.00012
   154    F   10  dz2    Ryd( 3d)     0.00240
 
   155    C   11  S      Cor( 1S)     1.99904
   156    C   11  S      Val( 2S)     0.97735
   157    C   11  S      Ryd( 3S)     0.00106
   158    C   11  S      Ryd( 4S)     0.00005
   159    C   11  px     Val( 2p)     1.09552
   160    C   11  px     Ryd( 3p)     0.00585
   161    C   11  py     Val( 2p)     1.17525
   162    C   11  py     Ryd( 3p)     0.00553
   163    C   11  pz     Val( 2p)     0.89756
   164    C   11  pz     Ryd( 3p)     0.00420
   165    C   11  dxy    Ryd( 3d)     0.00080
   166    C   11  dxz    Ryd( 3d)     0.00074
   167    C   11  dyz    Ryd( 3d)     0.00049
   168    C   11  dx2y2  Ryd( 3d)     0.00066
   169    C   11  dz2    Ryd( 3d)     0.00044
 
   170    C   12  S      Cor( 1S)     1.99909
   171    C   12  S      Val( 2S)     0.97530
   172    C   12  S      Ryd( 3S)     0.00082
   173    C   12  S      Ryd( 4S)     0.00004
   174    C   12  px     Val( 2p)     1.07848
   175    C   12  px     Ryd( 3p)     0.00406
   176    C   12  py     Val( 2p)     1.15848
   177    C   12  py     Ryd( 3p)     0.00523
   178    C   12  pz     Val( 2p)     0.91116
   179    C   12  pz     Ryd( 3p)     0.00342
   180    C   12  dxy    Ryd( 3d)     0.00079
   181    C   12  dxz    Ryd( 3d)     0.00070
   182    C   12  dyz    Ryd( 3d)     0.00045
   183    C   12  dx2y2  Ryd( 3d)     0.00066
   184    C   12  dz2    Ryd( 3d)     0.00043
 
   185    H   13  S      Val( 1S)     0.72769
   186    H   13  S      Ryd( 2S)     0.00064
 
   187    H   14  S      Val( 1S)     0.71540
   188    H   14  S      Ryd( 2S)     0.00118
 
   189    H   15  S      Val( 1S)     0.71542
   190    H   15  S      Ryd( 2S)     0.00118
 
   191    H   16  S      Val( 1S)     0.72770
   192    H   16  S      Ryd( 2S)     0.00064

 WARNING:  1 low occupancy (<1.9990e) core orbital  found on  C    3
           1 low occupancy (<1.9990e) core orbital  found on  C    6


 Summary of Natural Population Analysis:                  
                                                          
                                       Natural Population 
                Natural  -----------------------------------------------
    Atom  No    Charge         Core      Valence    Rydberg      Total
 -----------------------------------------------------------------------
      N    1   -0.28751      1.99966     5.26570    0.02215     7.28751
      C    2    0.24133      1.99940     3.72561    0.03367     5.75867
      C    3   -0.18734      1.99891     4.17346    0.01498     6.18734
      C    4   -0.13913      1.99909     4.12344    0.01659     6.13913
      C    5   -0.16452      1.99904     4.14566    0.01982     6.16452
      C    6   -0.39139      1.99875     4.36505    0.02760     6.39139
      S    7    2.42476      9.99870     3.36852    0.20802    13.57524
      O    8   -0.89965      1.99988     6.87589    0.02388     8.89965
      O    9   -0.89962      1.99988     6.87586    0.02388     8.89962
      F   10   -0.50345      1.99997     7.49359    0.00989     9.50345
      C   11   -0.16453      1.99904     4.14568    0.01982     6.16453
      C   12   -0.13910      1.99909     4.12342    0.01659     6.13910
      H   13    0.27166      0.00000     0.72769    0.00064     0.72834
      H   14    0.28342      0.00000     0.71540    0.00118     0.71658
      H   15    0.28340      0.00000     0.71542    0.00118     0.71660
      H   16    0.27166      0.00000     0.72770    0.00064     0.72834
 =======================================================================
   * Total *    0.00000     31.99140    61.56808    0.44053    94.00000

                                 Natural Population      
 --------------------------------------------------------
   Core                      31.99140 ( 99.9731% of  32)
   Valence                   61.56808 ( 99.3034% of  62)
   Natural Minimal Basis     93.55947 ( 99.5314% of  94)
   Natural Rydberg Basis      0.44053 (  0.4686% of  94)
 --------------------------------------------------------

    Atom  No          Natural Electron Configuration
 ----------------------------------------------------------------------------
      N    1      [core]2S( 1.59)2p( 3.67)3d( 0.01)
      C    2      [core]2S( 0.83)2p( 2.89)3S( 0.01)3p( 0.02)
      C    3      [core]2S( 0.90)2p( 3.27)3p( 0.01)
      C    4      [core]2S( 0.98)2p( 3.15)3p( 0.01)
      C    5      [core]2S( 0.98)2p( 3.17)3p( 0.02)
      C    6      [core]2S( 0.99)2p( 3.38)3p( 0.02)
      S    7      [core]3S( 1.02)3p( 2.35)3d( 0.17)4p( 0.03)
      O    8      [core]2S( 1.83)2p( 5.05)3d( 0.02)
      O    9      [core]2S( 1.83)2p( 5.05)3d( 0.02)
      F   10      [core]2S( 1.93)2p( 5.57)3d( 0.01)
      C   11      [core]2S( 0.98)2p( 3.17)3p( 0.02)
      C   12      [core]2S( 0.98)2p( 3.15)3p( 0.01)
      H   13            1S( 0.73)
      H   14            1S( 0.72)
      H   15            1S( 0.72)
      H   16            1S( 0.73)


 NBO analysis skipped by request.
 1\1\GINC-DELLA-R2C3N2\SP\RAPFD TD-FC\6-31G(d)\C7H4F1N1O2S1\SHIVAANI\16
 -Feb-2024\0\\# TD(NStates=10, Root=1) APFD/6-31G* volume pop=NPA densi
 ty=current Geom=AllCheck Guess=Read\\YKZXWWMBQGHLNP-UHFFFAOYSA-N_conf_
 0\\0,1\N,0,4.4138934951,0.0908482165,-0.0834844785\C,0,3.2523974156,0.
 0705079585,-0.0707490941\C,0,1.8208276437,0.0450912206,-0.0541461062\C
 ,0,1.1435433601,-1.1032399751,-0.4886497482\C,0,-0.244807286,-1.129417
 1973,-0.4740577342\C,0,-0.9299357635,-0.0040047876,-0.0215484102\S,0,-
 2.6986992396,-0.036391684,0.0012359691\O,0,-3.1822074279,-1.0557764132
 ,-0.8987826783\O,0,-3.2139705138,1.3116648134,0.0143648606\F,0,-2.9225
 30678,-0.6116538169,1.4849517743\C,0,-0.2750408677,1.1488128946,0.4060
 767479\C,0,1.1133503927,1.1712759361,0.39014141\H,0,1.7083744631,-1.96
 21416966,-0.8369727253\H,0,-0.7935249546,-2.001134332,-0.8166524381\H,
 0,-0.8467421962,2.0115324216,0.7335330291\H,0,1.6550721572,2.054026441
 6,0.7147396221\\Version=ES64L-G16RevA.03\State=1-A\HF=-971.7516503\RMS
 D=6.833e-09\Dipole=0.2555391,-0.0696224,0.189789\Quadrupole=-18.846403
 5,11.9323575,6.914046,0.0131264,-1.1240705,2.2630571\PG=C01 [X(C7H4F1N
 1O2S1)]\\@


 HE THAT WALD REACHE THE SWEITE ROSE
 SULD NOW AND THEN BE SCRATCHED WT THE SCHARPE BREERES.
 -- PROVERBS AND REASONS OF THE YEAR 1585
           AS REPRINTED IN PAISLEY MAGAZINE 1828.
 Job cpu time:       0 days  0 hours 10 minutes 24.2 seconds.
 Elapsed time:       0 days  0 hours  5 minutes 16.8 seconds.
 File lengths (MBytes):  RWF=    347 Int=      0 D2E=      0 Chk=     24 Scr=      1
 Normal termination of Gaussian 16 at Fri Feb 16 15:21:21 2024.
