 Entering Gaussian System, Link 0=g16
 Input=GVVHDCOFBIOZJP-UHFFFAOYSA-N_conf_0.gjf
 Output=GVVHDCOFBIOZJP-UHFFFAOYSA-N_conf_0.log
 Initial command:
 /opt/export/g16/l1.exe "/tmp/Gau-2624627.inp" -scrdir="/tmp/"
 Entering Link 1 = /opt/export/g16/l1.exe PID=   2624628.
  
 Copyright (c) 1988,1990,1992,1993,1995,1998,2003,2009,2016,
            Gaussian, Inc.  All Rights Reserved.
  
 This is part of the Gaussian(R) 16 program.  It is based on
 the Gaussian(R) 09 system (copyright 2009, Gaussian, Inc.),
 the Gaussian(R) 03 system (copyright 2003, Gaussian, Inc.),
 the Gaussian(R) 98 system (copyright 1998, Gaussian, Inc.),
 the Gaussian(R) 94 system (copyright 1995, Gaussian, Inc.),
 the Gaussian 92(TM) system (copyright 1992, Gaussian, Inc.),
 the Gaussian 90(TM) system (copyright 1990, Gaussian, Inc.),
 the Gaussian 88(TM) system (copyright 1988, Gaussian, Inc.),
 the Gaussian 86(TM) system (copyright 1986, Carnegie Mellon
 University), and the Gaussian 82(TM) system (copyright 1983,
 Carnegie Mellon University). Gaussian is a federally registered
 trademark of Gaussian, Inc.
  
 This software contains proprietary and confidential information,
 including trade secrets, belonging to Gaussian, Inc.
  
 This software is provided under written license and may be
 used, copied, transmitted, or stored only in accord with that
 written license.
  
 The following legend is applicable only to US Government
 contracts under FAR:
  
                    RESTRICTED RIGHTS LEGEND
  
 Use, reproduction and disclosure by the US Government is
 subject to restrictions as set forth in subparagraphs (a)
 and (c) of the Commercial Computer Software - Restricted
 Rights clause in FAR 52.227-19.
  
 Gaussian, Inc.
 340 Quinnipiac St., Bldg. 40, Wallingford CT 06492
  
  
 ---------------------------------------------------------------
 Warning -- This program may not be used in any manner that
 competes with the business of Gaussian, Inc. or will provide
 assistance to any competitor of Gaussian, Inc.  The licensee
 of this program is prohibited from giving any competitor of
 Gaussian, Inc. access to this program.  By using this program,
 the user acknowledges that Gaussian, Inc. is engaged in the
 business of creating and licensing software in the field of
 computational chemistry and represents and warrants to the
 licensee that it is not a competitor of Gaussian, Inc. and that
 it will not use this program in any manner prohibited above.
 ---------------------------------------------------------------
  

 Cite this work as:
 Gaussian 16, Revision A.03,
 M. J. Frisch, G. W. Trucks, H. B. Schlegel, G. E. Scuseria, 
 M. A. Robb, J. R. Cheeseman, G. Scalmani, V. Barone, 
 G. A. Petersson, H. Nakatsuji, X. Li, M. Caricato, A. V. Marenich, 
 J. Bloino, B. G. Janesko, R. Gomperts, B. Mennucci, H. P. Hratchian, 
 J. V. Ortiz, A. F. Izmaylov, J. L. Sonnenberg, D. Williams-Young, 
 F. Ding, F. Lipparini, F. Egidi, J. Goings, B. Peng, A. Petrone, 
 T. Henderson, D. Ranasinghe, V. G. Zakrzewski, J. Gao, N. Rega, 
 G. Zheng, W. Liang, M. Hada, M. Ehara, K. Toyota, R. Fukuda, 
 J. Hasegawa, M. Ishida, T. Nakajima, Y. Honda, O. Kitao, H. Nakai, 
 T. Vreven, K. Throssell, J. A. Montgomery, Jr., J. E. Peralta, 
 F. Ogliaro, M. J. Bearpark, J. J. Heyd, E. N. Brothers, K. N. Kudin, 
 V. N. Staroverov, T. A. Keith, R. Kobayashi, J. Normand, 
 K. Raghavachari, A. P. Rendell, J. C. Burant, S. S. Iyengar, 
 J. Tomasi, M. Cossi, J. M. Millam, M. Klene, C. Adamo, R. Cammi, 
 J. W. Ochterski, R. L. Martin, K. Morokuma, O. Farkas, 
 J. B. Foresman, and D. J. Fox, Gaussian, Inc., Wallingford CT, 2016.
 
 ******************************************
 Gaussian 16:  ES64L-G16RevA.03 25-Dec-2016
                16-Feb-2024 
 ******************************************
 %nprocshared=3
 Will use up to    3 processors via shared memory.
 %mem=6GB
 %Chk=GVVHDCOFBIOZJP-UHFFFAOYSA-N_conf_0_0.chk
 --------------------------------
 # opt=CalcFc APFD/6-31G* scf=xqc
 --------------------------------
 1/10=4,18=20,19=15,26=3,38=1/1,3;
 2/9=110,12=2,17=6,18=5,40=1/2;
 3/5=1,6=6,7=1,11=2,25=1,30=1,71=2,74=-44,140=1/1,2,3;
 4//1;
 5/5=2,8=3,13=1,38=5/2,8;
 8/6=4,10=90,11=11/1;
 11/6=1,8=1,9=11,15=111,16=1/1,2,10;
 10/6=1,13=1/2;
 6/7=2,8=2,9=2,10=2,28=1/1;
 7/10=1,18=20,25=1/1,2,3,16;
 1/10=4,18=20,19=15,26=3/3(2);
 2/9=110/2;
 99//99;
 2/9=110/2;
 3/5=1,6=6,7=1,11=2,25=1,30=1,71=1,74=-44/1,2,3;
 4/5=5,16=3,69=1/1;
 5/5=2,8=3,13=1,38=5/2,8;
 7//1,2,3,16;
 1/18=20,19=15,26=3/3(-5);
 2/9=110/2;
 6/7=2,8=2,9=2,10=2,19=2,28=1/1;
 99/9=1/99;
 ----------------------------------
 GVVHDCOFBIOZJP-UHFFFAOYSA-N_conf_0
 ----------------------------------
 Symbolic Z-matrix:
 Charge =  0 Multiplicity = 1
 O                    -2.58185  -1.8      -0.93768 
 S                    -2.48498  -1.11369   0.33353 
 O                    -2.24063  -1.80712   1.58086 
 F                    -3.89016  -0.38901   0.52596 
 C                    -1.2719    0.15593   0.17278 
 C                    -1.71523   1.47573   0.23659 
 C                    -0.76695   2.46311   0.1109 
 N                     0.54505   2.21437  -0.06757 
 C                     0.9656    0.93853  -0.12817 
 C                     2.3221    0.70762  -0.31262 
 C                     2.85048  -0.58201  -0.38787 
 C                     2.00584  -1.67555  -0.27652 
 C                     0.63911  -1.4724   -0.09076 
 C                     0.09351  -0.16301  -0.01313 
 H                    -2.75788   1.73703   0.3786 
 H                    -1.03622   3.51535   0.15037 
 H                     2.99122   1.56119  -0.40087 
 H                     3.9182   -0.72454  -0.53294 
 H                     2.40546  -2.68525  -0.33353 
 H                     0.00924  -2.35629  -0.00792 
 

 GradGradGradGradGradGradGradGradGradGradGradGradGradGradGradGradGradGrad
 Berny optimization.
 Initialization pass.
                           ----------------------------
                           !    Initial Parameters    !
                           ! (Angstroms and Degrees)  !
 --------------------------                            --------------------------
 ! Name  Definition              Value          Derivative Info.                !
 --------------------------------------------------------------------------------
 ! R1    R(1,2)                  1.4479         calculate D2E/DX2 analytically  !
 ! R2    R(2,3)                  1.4479         calculate D2E/DX2 analytically  !
 ! R3    R(2,4)                  1.5927         calculate D2E/DX2 analytically  !
 ! R4    R(2,5)                  1.7633         calculate D2E/DX2 analytically  !
 ! R5    R(5,6)                  1.3937         calculate D2E/DX2 analytically  !
 ! R6    R(5,14)                 1.4144         calculate D2E/DX2 analytically  !
 ! R7    R(6,7)                  1.3748         calculate D2E/DX2 analytically  !
 ! R8    R(6,15)                 1.0842         calculate D2E/DX2 analytically  !
 ! R9    R(7,8)                  1.3472         calculate D2E/DX2 analytically  !
 ! R10   R(7,16)                 1.0869         calculate D2E/DX2 analytically  !
 ! R11   R(8,9)                  1.3447         calculate D2E/DX2 analytically  !
 ! R12   R(9,10)                 1.3883         calculate D2E/DX2 analytically  !
 ! R13   R(9,14)                 1.4097         calculate D2E/DX2 analytically  !
 ! R14   R(10,11)                1.3957         calculate D2E/DX2 analytically  !
 ! R15   R(10,17)                1.0882         calculate D2E/DX2 analytically  !
 ! R16   R(11,12)                1.3862         calculate D2E/DX2 analytically  !
 ! R17   R(11,18)                1.0869         calculate D2E/DX2 analytically  !
 ! R18   R(12,13)                1.3942         calculate D2E/DX2 analytically  !
 ! R19   R(12,19)                1.0874         calculate D2E/DX2 analytically  !
 ! R20   R(13,14)                1.4206         calculate D2E/DX2 analytically  !
 ! R21   R(13,20)                1.0885         calculate D2E/DX2 analytically  !
 ! A1    A(1,2,3)              122.727          calculate D2E/DX2 analytically  !
 ! A2    A(1,2,4)              105.2313         calculate D2E/DX2 analytically  !
 ! A3    A(1,2,5)              107.8952         calculate D2E/DX2 analytically  !
 ! A4    A(3,2,4)              105.2313         calculate D2E/DX2 analytically  !
 ! A5    A(3,2,5)              107.8952         calculate D2E/DX2 analytically  !
 ! A6    A(4,2,5)              106.8793         calculate D2E/DX2 analytically  !
 ! A7    A(2,5,6)              117.3107         calculate D2E/DX2 analytically  !
 ! A8    A(2,5,14)             120.9126         calculate D2E/DX2 analytically  !
 ! A9    A(6,5,14)             121.7767         calculate D2E/DX2 analytically  !
 ! A10   A(5,6,7)              117.163          calculate D2E/DX2 analytically  !
 ! A11   A(5,6,15)             122.6904         calculate D2E/DX2 analytically  !
 ! A12   A(7,6,15)             120.1466         calculate D2E/DX2 analytically  !
 ! A13   A(6,7,8)              123.4524         calculate D2E/DX2 analytically  !
 ! A14   A(6,7,16)             121.4077         calculate D2E/DX2 analytically  !
 ! A15   A(8,7,16)             115.1399         calculate D2E/DX2 analytically  !
 ! A16   A(7,8,9)              119.0582         calculate D2E/DX2 analytically  !
 ! A17   A(8,9,10)             117.9926         calculate D2E/DX2 analytically  !
 ! A18   A(8,9,14)             122.9725         calculate D2E/DX2 analytically  !
 ! A19   A(10,9,14)            119.0349         calculate D2E/DX2 analytically  !
 ! A20   A(9,10,11)            122.0553         calculate D2E/DX2 analytically  !
 ! A21   A(9,10,17)            118.7588         calculate D2E/DX2 analytically  !
 ! A22   A(11,10,17)           119.1859         calculate D2E/DX2 analytically  !
 ! A23   A(10,11,12)           119.598          calculate D2E/DX2 analytically  !
 ! A24   A(10,11,18)           120.0163         calculate D2E/DX2 analytically  !
 ! A25   A(12,11,18)           120.3857         calculate D2E/DX2 analytically  !
 ! A26   A(11,12,13)           119.5421         calculate D2E/DX2 analytically  !
 ! A27   A(11,12,19)           120.2888         calculate D2E/DX2 analytically  !
 ! A28   A(13,12,19)           120.1692         calculate D2E/DX2 analytically  !
 ! A29   A(12,13,14)           121.2035         calculate D2E/DX2 analytically  !
 ! A30   A(12,13,20)           117.3272         calculate D2E/DX2 analytically  !
 ! A31   A(14,13,20)           121.4693         calculate D2E/DX2 analytically  !
 ! A32   A(5,14,9)             115.5772         calculate D2E/DX2 analytically  !
 ! A33   A(5,14,13)            125.8565         calculate D2E/DX2 analytically  !
 ! A34   A(9,14,13)            118.5663         calculate D2E/DX2 analytically  !
 ! D1    D(1,2,5,6)            112.7361         calculate D2E/DX2 analytically  !
 ! D2    D(1,2,5,14)           -67.2638         calculate D2E/DX2 analytically  !
 ! D3    D(3,2,5,6)           -112.735          calculate D2E/DX2 analytically  !
 ! D4    D(3,2,5,14)            67.2651         calculate D2E/DX2 analytically  !
 ! D5    D(4,2,5,6)              0.0005         calculate D2E/DX2 analytically  !
 ! D6    D(4,2,5,14)          -179.9994         calculate D2E/DX2 analytically  !
 ! D7    D(2,5,6,7)           -179.9998         calculate D2E/DX2 analytically  !
 ! D8    D(2,5,6,15)             0.0002         calculate D2E/DX2 analytically  !
 ! D9    D(14,5,6,7)             0.0            calculate D2E/DX2 analytically  !
 ! D10   D(14,5,6,15)         -179.9999         calculate D2E/DX2 analytically  !
 ! D11   D(2,5,14,9)           179.9998         calculate D2E/DX2 analytically  !
 ! D12   D(2,5,14,13)           -0.0003         calculate D2E/DX2 analytically  !
 ! D13   D(6,5,14,9)            -0.0001         calculate D2E/DX2 analytically  !
 ! D14   D(6,5,14,13)          179.9998         calculate D2E/DX2 analytically  !
 ! D15   D(5,6,7,8)              0.0001         calculate D2E/DX2 analytically  !
 ! D16   D(5,6,7,16)          -180.0            calculate D2E/DX2 analytically  !
 ! D17   D(15,6,7,8)          -180.0            calculate D2E/DX2 analytically  !
 ! D18   D(15,6,7,16)            0.0            calculate D2E/DX2 analytically  !
 ! D19   D(6,7,8,9)             -0.0001         calculate D2E/DX2 analytically  !
 ! D20   D(16,7,8,9)           180.0            calculate D2E/DX2 analytically  !
 ! D21   D(7,8,9,10)           180.0            calculate D2E/DX2 analytically  !
 ! D22   D(7,8,9,14)             0.0            calculate D2E/DX2 analytically  !
 ! D23   D(8,9,10,11)          179.9999         calculate D2E/DX2 analytically  !
 ! D24   D(8,9,10,17)           -0.0001         calculate D2E/DX2 analytically  !
 ! D25   D(14,9,10,11)          -0.0001         calculate D2E/DX2 analytically  !
 ! D26   D(14,9,10,17)         179.9999         calculate D2E/DX2 analytically  !
 ! D27   D(8,9,14,5)             0.0001         calculate D2E/DX2 analytically  !
 ! D28   D(8,9,14,13)         -179.9998         calculate D2E/DX2 analytically  !
 ! D29   D(10,9,14,5)         -179.9999         calculate D2E/DX2 analytically  !
 ! D30   D(10,9,14,13)           0.0002         calculate D2E/DX2 analytically  !
 ! D31   D(9,10,11,12)           0.0            calculate D2E/DX2 analytically  !
 ! D32   D(9,10,11,18)        -179.9999         calculate D2E/DX2 analytically  !
 ! D33   D(17,10,11,12)        180.0            calculate D2E/DX2 analytically  !
 ! D34   D(17,10,11,18)          0.0001         calculate D2E/DX2 analytically  !
 ! D35   D(10,11,12,13)          0.0001         calculate D2E/DX2 analytically  !
 ! D36   D(10,11,12,19)       -179.9999         calculate D2E/DX2 analytically  !
 ! D37   D(18,11,12,13)        180.0            calculate D2E/DX2 analytically  !
 ! D38   D(18,11,12,19)          0.0            calculate D2E/DX2 analytically  !
 ! D39   D(11,12,13,14)          0.0            calculate D2E/DX2 analytically  !
 ! D40   D(11,12,13,20)       -179.9999         calculate D2E/DX2 analytically  !
 ! D41   D(19,12,13,14)        180.0            calculate D2E/DX2 analytically  !
 ! D42   D(19,12,13,20)          0.0            calculate D2E/DX2 analytically  !
 ! D43   D(12,13,14,5)         179.9999         calculate D2E/DX2 analytically  !
 ! D44   D(12,13,14,9)          -0.0001         calculate D2E/DX2 analytically  !
 ! D45   D(20,13,14,5)          -0.0001         calculate D2E/DX2 analytically  !
 ! D46   D(20,13,14,9)         179.9998         calculate D2E/DX2 analytically  !
 --------------------------------------------------------------------------------
 Trust Radius=3.00D-01 FncErr=1.00D-07 GrdErr=1.00D-06 EigMax=2.50D+02 EigMin=1.00D-04
 Number of steps in this run=    111 maximum allowed number of steps=    120.
 GradGradGradGradGradGradGradGradGradGradGradGradGradGradGradGradGradGrad

                          Input orientation:                          
 ---------------------------------------------------------------------
 Center     Atomic      Atomic             Coordinates (Angstroms)
 Number     Number       Type             X           Y           Z
 ---------------------------------------------------------------------
      1          8           0       -2.581852   -1.799996   -0.937675
      2         16           0       -2.484975   -1.113688    0.333534
      3          8           0       -2.240633   -1.807121    1.580862
      4          9           0       -3.890156   -0.389007    0.525963
      5          6           0       -1.271900    0.155927    0.172776
      6          6           0       -1.715233    1.475734    0.236586
      7          6           0       -0.766950    2.463111    0.110899
      8          7           0        0.545049    2.214369   -0.067573
      9          6           0        0.965597    0.938532   -0.128171
     10          6           0        2.322103    0.707624   -0.312623
     11          6           0        2.850477   -0.582011   -0.387868
     12          6           0        2.005840   -1.675552   -0.276522
     13          6           0        0.639108   -1.472399   -0.090764
     14          6           0        0.093509   -0.163014   -0.013131
     15          1           0       -2.757883    1.737031    0.378598
     16          1           0       -1.036225    3.515353    0.150367
     17          1           0        2.991218    1.561193   -0.400867
     18          1           0        3.918201   -0.724541   -0.532941
     19          1           0        2.405461   -2.685251   -0.333527
     20          1           0        0.009244   -2.356293   -0.007923
 ---------------------------------------------------------------------
                    Distance matrix (angstroms):
                    1          2          3          4          5
     1  O    0.000000
     2  S    1.447887   0.000000
     3  O    2.541557   1.447888   0.000000
     4  F    2.417599   1.592710   2.417600   0.000000
     5  C    2.602827   1.763325   2.602827   2.697584   0.000000
     6  C    3.586130   2.703148   3.586121   2.879460   1.393739
     7  C    4.750522   3.974251   4.750517   4.249855   2.362605
     8  N    5.162336   4.518617   5.162339   5.176959   2.756131
     9  C    4.554035   4.041192   4.554044   5.076278   2.389442
    10  C    5.543250   5.180994   5.543265   6.363803   3.668357
    11  C    5.594280   5.410189   5.594300   6.805033   4.225265
    12  C    4.636758   4.566758   4.636779   6.087853   3.781503
    13  C    3.346516   3.173106   3.346533   4.697694   2.524451
    14  C    3.269870   2.769935   3.269881   4.026324   1.414435
    15  H    3.778111   2.864107   3.778095   2.413254   2.179541
    16  H    5.641431   4.853911   5.641423   4.850776   3.367758
    17  H    6.530304   6.138650   6.530318   7.212185   4.525264
    18  H    6.600841   6.473243   6.600862   7.886971   5.311347
    19  H    5.101174   5.179880   5.101195   6.756202   4.674572
    20  H    2.808502   2.807452   2.808518   4.400065   2.825815
                    6          7          8          9         10
     6  C    0.000000
     7  C    1.374754   0.000000
     8  N    2.397284   1.347245   0.000000
     9  C    2.758348   2.320176   1.344728   0.000000
    10  C    4.146288   3.578178   2.342701   1.388326   0.000000
    11  C    5.046778   4.754715   3.638313   2.435624   1.395707
    12  C    4.903088   4.996698   4.160415   2.817365   2.404340
    13  C    3.787027   4.184006   3.688040   2.433225   2.763004
    14  C    2.453448   2.766280   2.420497   1.409672   2.411294
    15  H    1.084234   2.136041   3.366940   3.841709   5.229123
    16  H    2.151402   1.086867   2.059244   3.274887   4.401826
    17  H    4.750193   3.898614   2.553716   2.136635   1.088155
    18  H    6.096635   5.703183   4.497989   3.412846   2.155728
    19  H    5.883787   6.063608   5.247680   3.904764   3.393964
    20  H    4.209280   4.882955   4.602347   3.432920   3.850941
                   11         12         13         14         15
    11  C    0.000000
    12  C    1.386232   0.000000
    13  C    2.402335   1.394178   0.000000
    14  C    2.813691   2.452377   1.420631   0.000000
    15  H    6.117118   5.896436   4.696839   3.448777   0.000000
    16  H    5.673142   6.031740   5.267121   3.851418   2.485685
    17  H    2.147859   3.385698   3.851138   3.394105   5.804365
    18  H    1.086920   2.151115   3.392235   3.900485   7.173586
    19  H    2.150491   1.087401   2.156374   3.436489   6.835483
    20  H    3.371207   2.126488   1.088513   2.194903   4.955976
                   16         17         18         19         20
    16  H    0.000000
    17  H    4.510310   0.000000
    18  H    6.556672   2.470085   0.000000
    19  H    7.108225   4.287183   2.484458   0.000000
    20  H    5.966095   4.938955   4.268279   2.440510   0.000000
 Stoichiometry    C9H6FNO2S
 Framework group  C1[X(C9H6FNO2S)]
 Deg. of freedom    54
 Full point group                 C1      NOp   1
 Largest Abelian subgroup         C1      NOp   1
 Largest concise Abelian subgroup C1      NOp   1
                         Standard orientation:                         
 ---------------------------------------------------------------------
 Center     Atomic      Atomic             Coordinates (Angstroms)
 Number     Number       Type             X           Y           Z
 ---------------------------------------------------------------------
      1          8           0       -2.059240   -1.165639   -1.270774
      2         16           0       -1.978446   -0.476448   -0.000000
      3          8           0       -2.059256   -1.165620    1.270783
      4          9           0       -3.199796    0.545820   -0.000016
      5          6           0       -0.502813    0.488862    0.000003
      6          6           0       -0.645610    1.875266    0.000003
      7          6           0        0.506786    2.624889    0.000002
      8          7           0        1.742253    2.087591   -0.000001
      9          6           0        1.872407    0.749177   -0.000001
     10          6           0        3.155624    0.219268   -0.000004
     11          6           0        3.388791   -1.156825   -0.000003
     12          6           0        2.314765   -2.033244    0.000003
     13          6           0        1.015319   -1.528098    0.000005
     14          6           0        0.769596   -0.128879    0.000002
     15          1           0       -1.613298    2.364287    0.000005
     16          1           0        0.475756    3.711313    0.000002
     17          1           0        4.003631    0.901153   -0.000008
     18          1           0        4.407546   -1.535684   -0.000004
     19          1           0        2.483487   -3.107475    0.000006
     20          1           0        0.199187   -2.248368    0.000010
 ---------------------------------------------------------------------
 Rotational constants (GHZ):           1.1609590           0.5115015           0.3828563
 Standard basis: 6-31G(d) (6D, 7F)
 There are   226 symmetry adapted cartesian basis functions of A   symmetry.
 There are   226 symmetry adapted basis functions of A   symmetry.
   226 basis functions,   440 primitive gaussians,   226 cartesian basis functions
    54 alpha electrons       54 beta electrons
       nuclear repulsion energy      1009.1723113146 Hartrees.
 NAtoms=   20 NActive=   20 NUniq=   20 SFac= 1.00D+00 NAtFMM=   60 NAOKFM=F Big=F
 Integral buffers will be    131072 words long.
 Raffenetti 2 integral format.
 Two-electron integral symmetry is turned on.
 R6APFD:  NTU= -4 IXU= 1 FactS= 1.050
 Nuclear repulsion after empirical dispersion term =     1009.1539487944 Hartrees.
 One-electron integrals computed using PRISM.
 NBasis=   226 RedAO= T EigKep=  3.61D-04  NBF=   226
 NBsUse=   226 1.00D-06 EigRej= -1.00D+00 NBFU=   226
 ExpMin= 1.17D-01 ExpMax= 2.19D+04 ExpMxC= 3.30D+03 IAcc=3 IRadAn=         5 AccDes= 0.00D+00
 Harris functional with IExCor= 3731 and IRadAn=       5 diagonalized for initial guess.
 HarFok:  IExCor= 3731 AccDes= 0.00D+00 IRadAn=         5 IDoV= 1 UseB2=F ITyADJ=14
 ICtDFT=  3500011 ScaDFX=  1.000000  1.000000  1.000000  1.000000
 FoFCou: FMM=F IPFlag=           0 FMFlag=      100000 FMFlg1=           0
         NFxFlg=           0 DoJE=T BraDBF=F KetDBF=T FulRan=T
         wScrn=  0.000000 ICntrl=       500 IOpCl=  0 I1Cent=   200000004 NGrid=           0
         NMat0=    1 NMatS0=      1 NMatT0=    0 NMatD0=    1 NMtDS0=    0 NMtDT0=    0
 Petite list used in FoFCou.
 Keep R1 ints in memory in canonical form, NReq=334849580.
 Requested convergence on RMS density matrix=1.00D-08 within  32 cycles.
 Requested convergence on MAX density matrix=1.00D-06.
 Requested convergence on             energy=1.00D-06.
 No special actions if energy rises.
 Integral accuracy reduced to 1.0D-05 until final iterations.
 Initial convergence to 1.0D-05 achieved.  Increase integral accuracy.
 SCF Done:  E(RAPFD) =  -1049.12002005     A.U. after   15 cycles
            NFock= 15  Conv=0.70D-08     -V/T= 2.0065
 QCSCF skips out because SCF is already converged.
 DoSCS=F DFT=T ScalE2(SS,OS)=  1.000000  1.000000
 Range of M.O.s used for correlation:     1   226
 NBasis=   226 NAE=    54 NBE=    54 NFC=     0 NFV=     0
 NROrb=    226 NOA=    54 NOB=    54 NVA=   172 NVB=   172
 R6APFD:  NTU= -4 IXU= 1 FactS= 1.050
 Symmetrizing basis deriv contribution to polar:
 IMax=3 JMax=2 DiffMx= 0.00D+00
 G2DrvN: will do    21 centers at a time, making    1 passes.
 Calling FoFCou, ICntrl=  3107 FMM=F I1Cent=   0 AccDes= 0.00D+00.
 End of G2Drv F.D. properties file   721 does not exist.
 End of G2Drv F.D. properties file   722 does not exist.
 End of G2Drv F.D. properties file   788 does not exist.
          IDoAtm=11111111111111111111
          Differentiating once with respect to nuclear coordinates.
 Keep R1 ints in memory in canonical form, NReq=334857922.
          There are    63 degrees of freedom in the 1st order CPHF.  IDoFFX=6 NUNeed=     0.
     57 vectors produced by pass  0 Test12= 1.47D-14 1.59D-09 XBig12= 1.85D-01 1.43D-01.
 AX will form    57 AO Fock derivatives at one time.
     57 vectors produced by pass  1 Test12= 1.47D-14 1.59D-09 XBig12= 2.39D-02 4.80D-02.
     57 vectors produced by pass  2 Test12= 1.47D-14 1.59D-09 XBig12= 5.20D-04 5.00D-03.
     57 vectors produced by pass  3 Test12= 1.47D-14 1.59D-09 XBig12= 5.12D-06 4.93D-04.
     57 vectors produced by pass  4 Test12= 1.47D-14 1.59D-09 XBig12= 2.45D-08 4.42D-05.
     56 vectors produced by pass  5 Test12= 1.47D-14 1.59D-09 XBig12= 4.54D-11 2.00D-06.
     23 vectors produced by pass  6 Test12= 1.47D-14 1.59D-09 XBig12= 5.96D-14 3.56D-08.
 InvSVY:  IOpt=1 It=  1 EMax= 5.00D-16
 Solved reduced A of dimension   364 with    63 vectors.
 End of Minotr F.D. properties file   721 does not exist.
 End of Minotr F.D. properties file   722 does not exist.
 End of Minotr F.D. properties file   788 does not exist.

 **********************************************************************

            Population analysis using the SCF density.

 **********************************************************************

 Orbital symmetries:
       Occupied  (A) (A) (A) (A) (A) (A) (A) (A) (A) (A) (A) (A)
                 (A) (A) (A) (A) (A) (A) (A) (A) (A) (A) (A) (A)
                 (A) (A) (A) (A) (A) (A) (A) (A) (A) (A) (A) (A)
                 (A) (A) (A) (A) (A) (A) (A) (A) (A) (A) (A) (A)
                 (A) (A) (A) (A) (A) (A)
       Virtual   (A) (A) (A) (A) (A) (A) (A) (A) (A) (A) (A) (A)
                 (A) (A) (A) (A) (A) (A) (A) (A) (A) (A) (A) (A)
                 (A) (A) (A) (A) (A) (A) (A) (A) (A) (A) (A) (A)
                 (A) (A) (A) (A) (A) (A) (A) (A) (A) (A) (A) (A)
                 (A) (A) (A) (A) (A) (A) (A) (A) (A) (A) (A) (A)
                 (A) (A) (A) (A) (A) (A) (A) (A) (A) (A) (A) (A)
                 (A) (A) (A) (A) (A) (A) (A) (A) (A) (A) (A) (A)
                 (A) (A) (A) (A) (A) (A) (A) (A) (A) (A) (A) (A)
                 (A) (A) (A) (A) (A) (A) (A) (A) (A) (A) (A) (A)
                 (A) (A) (A) (A) (A) (A) (A) (A) (A) (A) (A) (A)
                 (A) (A) (A) (A) (A) (A) (A) (A) (A) (A) (A) (A)
                 (A) (A) (A) (A) (A) (A) (A) (A) (A) (A) (A) (A)
                 (A) (A) (A) (A) (A) (A) (A) (A) (A) (A) (A) (A)
                 (A) (A) (A) (A) (A) (A) (A) (A) (A) (A) (A) (A)
                 (A) (A) (A) (A)
 The electronic state is 1-A.
 Alpha  occ. eigenvalues --  -89.24662 -24.80966 -19.22047 -19.22047 -14.39327
 Alpha  occ. eigenvalues --  -10.29867 -10.27592 -10.27307 -10.26834 -10.26377
 Alpha  occ. eigenvalues --  -10.24604 -10.24302 -10.24189 -10.23555  -8.22495
 Alpha  occ. eigenvalues --   -6.17472  -6.17053  -6.16993  -1.30132  -1.14337
 Alpha  occ. eigenvalues --   -1.05994  -0.99259  -0.89375  -0.87476  -0.80446
 Alpha  occ. eigenvalues --   -0.78093  -0.74195  -0.68146  -0.67090  -0.64757
 Alpha  occ. eigenvalues --   -0.59115  -0.56613  -0.55976  -0.53958  -0.52784
 Alpha  occ. eigenvalues --   -0.50950  -0.49697  -0.47320  -0.46743  -0.46678
 Alpha  occ. eigenvalues --   -0.45779  -0.45240  -0.44442  -0.39809  -0.38865
 Alpha  occ. eigenvalues --   -0.38556  -0.37941  -0.37391  -0.35450  -0.34298
 Alpha  occ. eigenvalues --   -0.32837  -0.29239  -0.28761  -0.25895
 Alpha virt. eigenvalues --   -0.09411  -0.03712  -0.00675  -0.00462   0.06089
 Alpha virt. eigenvalues --    0.06490   0.09123   0.09637   0.12988   0.14175
 Alpha virt. eigenvalues --    0.14388   0.16899   0.17570   0.18362   0.19999
 Alpha virt. eigenvalues --    0.20777   0.25453   0.26784   0.27602   0.28476
 Alpha virt. eigenvalues --    0.31161   0.33335   0.33702   0.35627   0.38984
 Alpha virt. eigenvalues --    0.40628   0.43303   0.45159   0.48837   0.50638
 Alpha virt. eigenvalues --    0.52032   0.53212   0.53214   0.53828   0.56794
 Alpha virt. eigenvalues --    0.57333   0.58430   0.59567   0.59786   0.60061
 Alpha virt. eigenvalues --    0.60986   0.61559   0.63801   0.64658   0.66071
 Alpha virt. eigenvalues --    0.66776   0.68119   0.74786   0.75862   0.77434
 Alpha virt. eigenvalues --    0.79143   0.80875   0.82419   0.82755   0.83229
 Alpha virt. eigenvalues --    0.83989   0.84302   0.84973   0.86812   0.87801
 Alpha virt. eigenvalues --    0.89567   0.90166   0.90499   0.94085   0.96218
 Alpha virt. eigenvalues --    0.99751   0.99851   1.01537   1.01889   1.04600
 Alpha virt. eigenvalues --    1.05565   1.06433   1.08712   1.11761   1.13448
 Alpha virt. eigenvalues --    1.15270   1.15622   1.19062   1.19636   1.21493
 Alpha virt. eigenvalues --    1.24111   1.26909   1.28216   1.31158   1.33464
 Alpha virt. eigenvalues --    1.35936   1.38355   1.39799   1.40646   1.42999
 Alpha virt. eigenvalues --    1.44918   1.46365   1.46624   1.48113   1.49181
 Alpha virt. eigenvalues --    1.49262   1.51890   1.56905   1.65011   1.68832
 Alpha virt. eigenvalues --    1.72825   1.75719   1.76227   1.77071   1.78002
 Alpha virt. eigenvalues --    1.79674   1.81729   1.81925   1.82271   1.83567
 Alpha virt. eigenvalues --    1.84336   1.84782   1.87828   1.88753   1.89809
 Alpha virt. eigenvalues --    1.90983   1.94271   1.94291   1.97145   1.99476
 Alpha virt. eigenvalues --    2.03035   2.03471   2.07892   2.12007   2.13267
 Alpha virt. eigenvalues --    2.14042   2.15040   2.18301   2.18331   2.19487
 Alpha virt. eigenvalues --    2.21376   2.26233   2.27948   2.30054   2.30326
 Alpha virt. eigenvalues --    2.32382   2.36628   2.38845   2.40901   2.56775
 Alpha virt. eigenvalues --    2.58852   2.60233   2.61855   2.62420   2.64599
 Alpha virt. eigenvalues --    2.68390   2.70710   2.72996   2.76417   2.80465
 Alpha virt. eigenvalues --    2.80801   2.84010   2.87837   2.90733   2.96220
 Alpha virt. eigenvalues --    3.09891   3.37470   3.45212   3.78418   3.94900
 Alpha virt. eigenvalues --    4.02648   4.07497   4.09261   4.11801   4.12082
 Alpha virt. eigenvalues --    4.22287   4.26336   4.34486   4.39384   4.50674
 Alpha virt. eigenvalues --    4.54684   4.77671
          Condensed to atoms (all electrons):
               1          2          3          4          5          6
     1  O    8.174015   0.440096  -0.038406  -0.035867  -0.050200  -0.000960
     2  S    0.440096  13.482508   0.440097   0.203824   0.199736  -0.031679
     3  O   -0.038406   0.440097   8.174014  -0.035867  -0.050200  -0.000960
     4  F   -0.035867   0.203824  -0.035867   9.167090  -0.032458   0.004873
     5  C   -0.050200   0.199736  -0.050200  -0.032458   5.597350   0.483751
     6  C   -0.000960  -0.031679  -0.000960   0.004873   0.483751   5.093272
     7  C   -0.000118   0.000834  -0.000118   0.000457  -0.046480   0.421865
     8  N    0.000003  -0.000523   0.000003  -0.000000  -0.061040  -0.024657
     9  C   -0.000031   0.002773  -0.000031  -0.000013  -0.054330  -0.038327
    10  C   -0.000000  -0.000116  -0.000000  -0.000000   0.015072   0.001095
    11  C   -0.000001   0.000042  -0.000001   0.000000  -0.000841   0.000022
    12  C    0.000092  -0.000287   0.000092  -0.000000   0.010557  -0.000207
    13  C    0.000673   0.000147   0.000673  -0.000010  -0.103885   0.007581
    14  C   -0.006021  -0.027365  -0.006021   0.001067   0.360615  -0.007029
    15  H    0.000056  -0.002769   0.000056   0.008297  -0.039920   0.355227
    16  H    0.000000  -0.000065   0.000000   0.000001   0.003565  -0.062882
    17  H   -0.000000   0.000002  -0.000000  -0.000000  -0.000186   0.000013
    18  H    0.000000  -0.000001   0.000000   0.000000   0.000005  -0.000000
    19  H   -0.000000  -0.000005  -0.000000  -0.000000  -0.000139   0.000001
    20  H    0.002122   0.013390   0.002122   0.000005  -0.011565   0.000018
               7          8          9         10         11         12
     1  O   -0.000118   0.000003  -0.000031  -0.000000  -0.000001   0.000092
     2  S    0.000834  -0.000523   0.002773  -0.000116   0.000042  -0.000287
     3  O   -0.000118   0.000003  -0.000031  -0.000000  -0.000001   0.000092
     4  F    0.000457  -0.000000  -0.000013  -0.000000   0.000000  -0.000000
     5  C   -0.046480  -0.061040  -0.054330   0.015072  -0.000841   0.010557
     6  C    0.421865  -0.024657  -0.038327   0.001095   0.000022  -0.000207
     7  C    4.832634   0.479983  -0.057357   0.004501  -0.000196   0.000009
     8  N    0.479983   6.887906   0.393490  -0.086083   0.005503  -0.000633
     9  C   -0.057357   0.393490   4.671173   0.484539  -0.017597  -0.042703
    10  C    0.004501  -0.086083   0.484539   5.047845   0.537274  -0.027226
    11  C   -0.000196   0.005503  -0.017597   0.537274   4.903923   0.505613
    12  C    0.000009  -0.000633  -0.042703  -0.027226   0.505613   4.919754
    13  C    0.000135   0.011219  -0.000013  -0.060923  -0.032104   0.508467
    14  C   -0.025558  -0.053527   0.417288  -0.062247  -0.031902  -0.007832
    15  H   -0.023960   0.003993   0.000287   0.000009  -0.000000   0.000001
    16  H    0.386942  -0.048203   0.003475  -0.000315   0.000003  -0.000001
    17  H    0.000270   0.001476  -0.030995   0.352591  -0.039930   0.004495
    18  H    0.000003  -0.000097   0.003291  -0.033262   0.367273  -0.039775
    19  H   -0.000000   0.000004   0.000772   0.003576  -0.037434   0.367173
    20  H    0.000008  -0.000073   0.003346   0.000330   0.003946  -0.034945
              13         14         15         16         17         18
     1  O    0.000673  -0.006021   0.000056   0.000000  -0.000000   0.000000
     2  S    0.000147  -0.027365  -0.002769  -0.000065   0.000002  -0.000001
     3  O    0.000673  -0.006021   0.000056   0.000000  -0.000000   0.000000
     4  F   -0.000010   0.001067   0.008297   0.000001  -0.000000   0.000000
     5  C   -0.103885   0.360615  -0.039920   0.003565  -0.000186   0.000005
     6  C    0.007581  -0.007029   0.355227  -0.062882   0.000013  -0.000000
     7  C    0.000135  -0.025558  -0.023960   0.386942   0.000270   0.000003
     8  N    0.011219  -0.053527   0.003993  -0.048203   0.001476  -0.000097
     9  C   -0.000013   0.417288   0.000287   0.003475  -0.030995   0.003291
    10  C   -0.060923  -0.062247   0.000009  -0.000315   0.352591  -0.033262
    11  C   -0.032104  -0.031902  -0.000000   0.000003  -0.039930   0.367273
    12  C    0.508467  -0.007832   0.000001  -0.000001   0.004495  -0.039775
    13  C    5.128766   0.437198  -0.000053   0.000030   0.000062   0.004548
    14  C    0.437198   4.885086   0.003379   0.000930   0.006638   0.000392
    15  H   -0.000053   0.003379   0.479304  -0.001316  -0.000001   0.000000
    16  H    0.000030   0.000930  -0.001316   0.521666  -0.000031  -0.000000
    17  H    0.000062   0.006638  -0.000001  -0.000031   0.515043  -0.004904
    18  H    0.004548   0.000392   0.000000  -0.000000  -0.004904   0.520294
    19  H   -0.031969   0.002570  -0.000000   0.000000  -0.000143  -0.004006
    20  H    0.357727  -0.030029  -0.000005  -0.000000   0.000014  -0.000160
              19         20
     1  O   -0.000000   0.002122
     2  S   -0.000005   0.013390
     3  O   -0.000000   0.002122
     4  F   -0.000000   0.000005
     5  C   -0.000139  -0.011565
     6  C    0.000001   0.000018
     7  C   -0.000000   0.000008
     8  N    0.000004  -0.000073
     9  C    0.000772   0.003346
    10  C    0.003576   0.000330
    11  C   -0.037434   0.003946
    12  C    0.367173  -0.034945
    13  C   -0.031969   0.357727
    14  C    0.002570  -0.030029
    15  H   -0.000000  -0.000005
    16  H    0.000000  -0.000000
    17  H   -0.000143   0.000014
    18  H   -0.004006  -0.000160
    19  H    0.512342  -0.003762
    20  H   -0.003762   0.480324
 Mulliken charges:
               1
     1  O   -0.485454
     2  S    1.279361
     3  O   -0.485455
     4  F   -0.281397
     5  C   -0.219408
     6  C   -0.201017
     7  C    0.026146
     8  N   -0.508744
     9  C    0.260964
    10  C   -0.176659
    11  C   -0.163594
    12  C   -0.162644
    13  C   -0.228272
    14  C    0.142368
    15  H    0.217414
    16  H    0.196201
    17  H    0.195585
    18  H    0.186400
    19  H    0.191020
    20  H    0.217184
 Sum of Mulliken charges =  -0.00000
 Mulliken charges with hydrogens summed into heavy atoms:
               1
     1  O   -0.485454
     2  S    1.279361
     3  O   -0.485455
     4  F   -0.281397
     5  C   -0.219408
     6  C    0.016397
     7  C    0.222347
     8  N   -0.508744
     9  C    0.260964
    10  C    0.018926
    11  C    0.022806
    12  C    0.028377
    13  C   -0.011088
    14  C    0.142368
 APT charges:
               1
     1  O   -0.164552
     2  S    0.335960
     3  O   -0.164548
     4  F    0.046714
     5  C   -0.339404
     6  C   -0.486781
     7  C   -0.478814
     8  N   -0.181731
     9  C   -0.352988
    10  C   -0.561378
    11  C   -0.435644
    12  C   -0.429127
    13  C   -0.654085
    14  C   -0.411563
    15  H    0.618286
    16  H    0.792541
    17  H    0.768376
    18  H    0.915202
    19  H    0.744140
    20  H    0.439397
 Sum of APT charges =  -0.00000
 APT charges with hydrogens summed into heavy atoms:
               1
     1  O   -0.164552
     2  S    0.335960
     3  O   -0.164548
     4  F    0.046714
     5  C   -0.339404
     6  C    0.131505
     7  C    0.313727
     8  N   -0.181731
     9  C   -0.352988
    10  C    0.206999
    11  C    0.479558
    12  C    0.315013
    13  C   -0.214689
    14  C   -0.411563
 Electronic spatial extent (au):  <R**2>=           2764.0193
 Charge=             -0.0000 electrons
 Dipole moment (field-independent basis, Debye):
    X=              2.4640    Y=              1.2287    Z=             -0.0000  Tot=              2.7534
 Quadrupole moment (field-independent basis, Debye-Ang):
   XX=            -82.3287   YY=            -77.6686   ZZ=            -91.6440
   XY=            -12.7435   XZ=              0.0000   YZ=             -0.0000
 Traceless Quadrupole moment (field-independent basis, Debye-Ang):
   XX=              1.5517   YY=              6.2119   ZZ=             -7.7636
   XY=            -12.7435   XZ=              0.0000   YZ=             -0.0000
 Octapole moment (field-independent basis, Debye-Ang**2):
  XXX=              2.3084  YYY=              0.1411  ZZZ=             -0.0002  XYY=            -12.4034
  XXY=            -11.2228  XXZ=             -0.0003  XZZ=            -11.1744  YZZ=              5.5709
  YYZ=              0.0001  XYZ=             -0.0000
 Hexadecapole moment (field-independent basis, Debye-Ang**3):
 XXXX=          -2050.4111 YYYY=           -945.6091 ZZZZ=           -195.2707 XXXY=            -72.9947
 XXXZ=              0.0003 YYYX=            -70.4490 YYYZ=             -0.0002 ZZZX=              0.0005
 ZZZY=             -0.0000 XXYY=           -544.4581 XXZZ=           -439.8519 YYZZ=           -226.6084
 XXYZ=              0.0001 YYXZ=              0.0000 ZZXY=             -4.7846
 N-N= 1.009153948794D+03 E-N=-4.483579852720D+03  KE= 1.042305791995D+03
  Exact polarizability:   0.000   0.000   0.000   0.000   0.000   0.000
 Approx polarizability: 249.374 -28.770 264.388  -0.000  -0.000  94.991
 R6APFD:  NTU= -4 IXU= 1 FactS= 1.050
 Calling FoFJK, ICntrl=    100147 FMM=F ISym2X=0 I1Cent= 0 IOpClX= 0 NMat=1 NMatS=1 NMatT=0.
 ***** Axes restored to original set *****
 -------------------------------------------------------------------
 Center     Atomic                   Forces (Hartrees/Bohr)
 Number     Number              X              Y              Z
 -------------------------------------------------------------------
      1        8          -0.001217562   -0.000558159    0.003864053
      2       16           0.015064140   -0.029879631   -0.002124962
      3        8          -0.002202341   -0.000537456   -0.003404219
      4        9           0.000367053    0.014625960   -0.000008341
      5        6          -0.021814711    0.026017497    0.003029177
      6        6          -0.007955146   -0.029053943    0.000995539
      7        6           0.051548815    0.012364445   -0.006949415
      8        7          -0.028361435    0.021413794    0.003903441
      9        6          -0.009070460    0.010247378    0.001258008
     10        6           0.038892084   -0.015124489   -0.005312517
     11        6           0.002487801    0.030202997   -0.000251441
     12        6          -0.026952003   -0.006955366    0.003632179
     13        6           0.008044877   -0.010560632   -0.001119969
     14        6          -0.008897325   -0.025860151    0.001132331
     15        1          -0.000757529   -0.002935382    0.000094250
     16        1          -0.000958345    0.000388936    0.000130954
     17        1          -0.003581023    0.001108556    0.000488393
     18        1          -0.000041493    0.001048912    0.000008538
     19        1          -0.002022943   -0.000000606    0.000274067
     20        1          -0.002572455    0.004047339    0.000359935
 -------------------------------------------------------------------
 Cartesian Forces:  Max     0.051548815 RMS     0.014273100
 FormGI is forming the generalized inverse of G from B-inverse, IUseBI=4.

 GradGradGradGradGradGradGradGradGradGradGradGradGradGradGradGradGradGrad
 Berny optimization.
 Internal  Forces:  Max     0.033575687 RMS     0.008121525
 Search for a local minimum.
 Step number   1 out of a maximum of  111
 All quantities printed in internal units (Hartrees-Bohrs-Radians)
 Mixed Optimization -- RFO/linear search
 Second derivative matrix not updated -- analytic derivatives used.
 ITU=  0
     Eigenvalues ---   -0.00063   0.01105   0.01310   0.01597   0.01750
     Eigenvalues ---    0.01811   0.02006   0.02167   0.02279   0.02471
     Eigenvalues ---    0.02645   0.02744   0.02895   0.02979   0.03661
     Eigenvalues ---    0.11266   0.11808   0.11949   0.12470   0.12853
     Eigenvalues ---    0.13173   0.14124   0.16172   0.17079   0.18335
     Eigenvalues ---    0.19363   0.19458   0.19787   0.20815   0.21764
     Eigenvalues ---    0.22349   0.23240   0.25606   0.27783   0.31707
     Eigenvalues ---    0.32635   0.36237   0.36448   0.36504   0.36587
     Eigenvalues ---    0.36712   0.37456   0.39058   0.41464   0.42427
     Eigenvalues ---    0.44389   0.46009   0.47641   0.49164   0.51861
     Eigenvalues ---    0.52766   0.56934   0.68067   0.68239
 RFO step:  Lambda=-1.86071340D-02 EMin=-6.30778438D-04
 Linear search not attempted -- first point.
 Iteration  1 RMS(Cart)=  0.10346090 RMS(Int)=  0.02686945
 Iteration  2 RMS(Cart)=  0.04606198 RMS(Int)=  0.00213669
 Iteration  3 RMS(Cart)=  0.00219037 RMS(Int)=  0.00061082
 Iteration  4 RMS(Cart)=  0.00000380 RMS(Int)=  0.00061082
 Iteration  5 RMS(Cart)=  0.00000000 RMS(Int)=  0.00061082
 Variable       Old X    -DE/DX   Delta X   Delta X   Delta X     New X
                                 (Linear)    (Quad)   (Total)
    R1        2.73611  -0.00305   0.00000  -0.00978  -0.00978   2.72633
    R2        2.73611  -0.00305   0.00000  -0.00746  -0.00746   2.72865
    R3        3.00979   0.00633   0.00000   0.02222   0.02222   3.03200
    R4        3.33220   0.00336   0.00000   0.01933   0.01933   3.35154
    R5        2.63378  -0.01366   0.00000  -0.04291  -0.04274   2.59105
    R6        2.67290  -0.00421   0.00000   0.00988   0.00997   2.68286
    R7        2.59791   0.03209   0.00000   0.06743   0.06752   2.66542
    R8        2.04891   0.00003   0.00000  -0.00212  -0.00212   2.04679
    R9        2.54592  -0.02934   0.00000  -0.07220  -0.07228   2.47365
   R10        2.05388   0.00062   0.00000   0.00390   0.00390   2.05779
   R11        2.54117   0.01136   0.00000   0.02548   0.02531   2.56648
   R12        2.62356   0.02116   0.00000   0.04558   0.04556   2.66911
   R13        2.66389   0.02334   0.00000   0.03742   0.03720   2.70110
   R14        2.63750  -0.01722   0.00000  -0.04233  -0.04226   2.59525
   R15        2.05632  -0.00137   0.00000  -0.00392  -0.00392   2.05239
   R16        2.61960   0.02501   0.00000   0.04625   0.04635   2.66595
   R17        2.05398  -0.00018   0.00000  -0.00020  -0.00020   2.05379
   R18        2.63461  -0.01394   0.00000  -0.03701  -0.03698   2.59763
   R19        2.05489  -0.00076   0.00000  -0.00133  -0.00133   2.05356
   R20        2.68460  -0.00736   0.00000  -0.00933  -0.00940   2.67520
   R21        2.05699  -0.00177   0.00000  -0.00528  -0.00528   2.05171
    A1        2.14199  -0.00369   0.00000  -0.01468  -0.01620   2.12579
    A2        1.83663   0.00737   0.00000   0.02353   0.02417   1.86081
    A3        1.88313   0.00807   0.00000   0.03609   0.03527   1.91840
    A4        1.83663   0.00737   0.00000   0.02399   0.02498   1.86162
    A5        1.88313   0.00807   0.00000   0.04204   0.04133   1.92446
    A6        1.86540  -0.03358   0.00000  -0.13824  -0.13756   1.72783
    A7        2.04746   0.01319   0.00000   0.05986   0.05846   2.10592
    A8        2.11032  -0.00936   0.00000  -0.04994  -0.05091   2.05941
    A9        2.12540  -0.00383   0.00000  -0.00992  -0.01046   2.11494
   A10        2.04488   0.00482   0.00000   0.00850   0.00889   2.05377
   A11        2.14135  -0.00552   0.00000  -0.01358  -0.01378   2.12757
   A12        2.09695   0.00070   0.00000   0.00509   0.00489   2.10184
   A13        2.15465   0.00382   0.00000   0.01257   0.01267   2.16732
   A14        2.11896  -0.00277   0.00000  -0.03375  -0.03380   2.08516
   A15        2.00957  -0.00105   0.00000   0.02117   0.02111   2.03069
   A16        2.07796  -0.00607   0.00000  -0.01175  -0.01195   2.06600
   A17        2.05936   0.00027   0.00000  -0.00345  -0.00330   2.05606
   A18        2.14627   0.00224   0.00000   0.00251   0.00242   2.14869
   A19        2.07755  -0.00251   0.00000   0.00094   0.00089   2.07844
   A20        2.13027  -0.00815   0.00000  -0.02517  -0.02512   2.10515
   A21        2.07273   0.00045   0.00000  -0.02032  -0.02034   2.05239
   A22        2.08019   0.00770   0.00000   0.04549   0.04546   2.12565
   A23        2.08738   0.00360   0.00000   0.01062   0.01079   2.09817
   A24        2.09468  -0.00286   0.00000   0.00070   0.00061   2.09529
   A25        2.10113  -0.00074   0.00000  -0.01132  -0.01141   2.08971
   A26        2.08640   0.00749   0.00000   0.02172   0.02183   2.10824
   A27        2.09944  -0.00180   0.00000  -0.00978  -0.00985   2.08959
   A28        2.09735  -0.00569   0.00000  -0.01194  -0.01201   2.08534
   A29        2.11540  -0.00517   0.00000  -0.01860  -0.01873   2.09667
   A30        2.04775   0.00718   0.00000   0.03571   0.03567   2.08342
   A31        2.12004  -0.00202   0.00000  -0.01710  -0.01713   2.10291
   A32        2.01720  -0.00099   0.00000  -0.00192  -0.00171   2.01550
   A33        2.19661  -0.00375   0.00000  -0.00858  -0.00854   2.18807
   A34        2.06937   0.00474   0.00000   0.01049   0.01025   2.07962
    D1        1.96762  -0.00381   0.00000  -0.35516  -0.35615   1.61146
    D2       -1.17397  -0.00381   0.00000  -0.27446  -0.27511  -1.44908
    D3       -1.96760   0.00381   0.00000  -0.31408  -0.31326  -2.28086
    D4        1.17400   0.00381   0.00000  -0.23338  -0.23222   0.94178
    D5        0.00001   0.00000   0.00000  -0.33298  -0.33331  -0.33330
    D6       -3.14158  -0.00000   0.00000  -0.25227  -0.25226   2.88934
    D7       -3.14159  -0.00000   0.00000   0.07666   0.07903  -3.06256
    D8        0.00000  -0.00000   0.00000   0.07935   0.08118   0.08118
    D9        0.00000  -0.00000   0.00000  -0.00479  -0.00462  -0.00462
   D10       -3.14159  -0.00000   0.00000  -0.00209  -0.00247   3.13912
   D11        3.14159   0.00000   0.00000  -0.09303  -0.09045   3.05114
   D12       -0.00001   0.00000   0.00000  -0.09086  -0.08855  -0.08855
   D13       -0.00000   0.00000   0.00000  -0.00868  -0.00896  -0.00897
   D14        3.14159   0.00000   0.00000  -0.00651  -0.00706   3.13453
   D15        0.00000   0.00000   0.00000   0.01488   0.01536   0.01536
   D16       -3.14159   0.00000   0.00000   0.00905   0.00902  -3.13257
   D17       -3.14159   0.00000   0.00000   0.01225   0.01324  -3.12835
   D18        0.00000   0.00000   0.00000   0.00643   0.00690   0.00690
   D19       -0.00000   0.00000   0.00000  -0.01020  -0.01042  -0.01043
   D20        3.14159   0.00000   0.00000  -0.00471  -0.00426   3.13733
   D21        3.14159   0.00000   0.00000  -0.00420  -0.00393   3.13766
   D22       -0.00000   0.00000   0.00000  -0.00509  -0.00514  -0.00514
   D23        3.14159   0.00000   0.00000  -0.00206  -0.00240   3.13919
   D24       -0.00000   0.00000   0.00000  -0.00194  -0.00219  -0.00219
   D25       -0.00000   0.00000   0.00000  -0.00120  -0.00124  -0.00124
   D26        3.14159   0.00000   0.00000  -0.00109  -0.00103   3.14056
   D27        0.00000  -0.00000   0.00000   0.01396   0.01443   0.01443
   D28       -3.14159  -0.00000   0.00000   0.01196   0.01266  -3.12893
   D29       -3.14159  -0.00000   0.00000   0.01306   0.01321  -3.12838
   D30        0.00000  -0.00000   0.00000   0.01106   0.01143   0.01144
   D31       -0.00000   0.00000   0.00000  -0.00590  -0.00599  -0.00599
   D32       -3.14159  -0.00000   0.00000  -0.00139  -0.00129   3.14030
   D33        3.14159   0.00000   0.00000  -0.00602  -0.00620   3.13539
   D34        0.00000  -0.00000   0.00000  -0.00150  -0.00151  -0.00151
   D35        0.00000  -0.00000   0.00000   0.00272   0.00288   0.00288
   D36       -3.14159  -0.00000   0.00000   0.00936   0.00959  -3.13200
   D37        3.14159   0.00000   0.00000  -0.00181  -0.00180   3.13979
   D38        0.00000   0.00000   0.00000   0.00483   0.00491   0.00491
   D39        0.00000  -0.00000   0.00000   0.00743   0.00755   0.00755
   D40       -3.14159  -0.00000   0.00000   0.02738   0.02770  -3.11389
   D41        3.14159   0.00000   0.00000   0.00080   0.00086  -3.14073
   D42        0.00000   0.00000   0.00000   0.02075   0.02101   0.02101
   D43        3.14159   0.00000   0.00000  -0.01658  -0.01656   3.12503
   D44       -0.00000   0.00000   0.00000  -0.01436  -0.01460  -0.01460
   D45       -0.00000   0.00000   0.00000  -0.03736  -0.03694  -0.03694
   D46        3.14159   0.00000   0.00000  -0.03513  -0.03498   3.10661
         Item               Value     Threshold  Converged?
 Maximum Force            0.033576     0.000450     NO 
 RMS     Force            0.008122     0.000300     NO 
 Maximum Displacement     0.603851     0.001800     NO 
 RMS     Displacement     0.141591     0.001200     NO 
 Predicted change in Energy=-1.005712D-02
 GradGradGradGradGradGradGradGradGradGradGradGradGradGradGradGradGradGrad

                          Input orientation:                          
 ---------------------------------------------------------------------
 Center     Atomic      Atomic             Coordinates (Angstroms)
 Number     Number       Type             X           Y           Z
 ---------------------------------------------------------------------
      1          8           0       -2.809617   -1.576816   -1.081862
      2         16           0       -2.456287   -1.169472    0.256289
      3          8           0       -2.069900   -2.126665    1.265963
      4          9           0       -3.718017   -0.368705    0.840347
      5          6           0       -1.287187    0.162728    0.193418
      6          6           0       -1.711068    1.466525    0.213849
      7          6           0       -0.736262    2.474691    0.062808
      8          7           0        0.540250    2.243121   -0.111452
      9          6           0        0.964395    0.953211   -0.138382
     10          6           0        2.343427    0.717050   -0.331954
     11          6           0        2.835502   -0.564660   -0.366081
     12          6           0        1.966398   -1.663487   -0.200296
     13          6           0        0.619094   -1.472056   -0.006197
     14          6           0        0.084115   -0.161651    0.020547
     15          1           0       -2.754411    1.727227    0.342705
     16          1           0       -1.039417    3.520378    0.083101
     17          1           0        2.990015    1.581531   -0.450972
     18          1           0        3.898118   -0.735852   -0.516778
     19          1           0        2.365662   -2.673991   -0.219751
     20          1           0       -0.024810   -2.333106    0.144698
 ---------------------------------------------------------------------
                    Distance matrix (angstroms):
                    1          2          3          4          5
     1  O    0.000000
     2  S    1.442713   0.000000
     3  O    2.522260   1.443938   0.000000
     4  F    2.445325   1.604467   2.447011   0.000000
     5  C    2.640103   1.773557   2.646566   2.570967   0.000000
     6  C    3.485341   2.739640   3.761212   2.790772   1.371123
     7  C    4.692950   4.034333   4.939499   4.192890   2.380284
     8  N    5.172545   4.556343   5.273063   5.085312   2.785769
     9  C    4.640513   4.045073   4.545852   4.962898   2.409269
    10  C    5.690170   5.190592   5.487942   6.268513   3.710074
    11  C    5.779634   5.362478   5.400592   6.666519   4.223588
    12  C    4.857468   4.473552   4.319277   5.922160   3.751785
    13  C    3.595009   3.101359   3.045914   4.554619   2.519181
    14  C    3.404656   2.743159   3.170508   3.895016   1.419710
    15  H    3.598491   2.913281   4.021622   2.359897   2.150044
    16  H    5.520157   4.902265   5.860900   4.782602   3.368586
    17  H    6.633921   6.142511   6.503947   7.104127   4.552219
    18  H    6.783822   6.415927   6.381987   7.744811   5.310293
    19  H    5.360088   5.073597   4.709684   6.591608   4.643381
    20  H    3.135534   2.697884   2.341419   4.240587   2.797348
                    6          7          8          9         10
     6  C    0.000000
     7  C    1.410482   0.000000
     8  N    2.403613   1.308997   0.000000
     9  C    2.746937   2.290766   1.358120   0.000000
    10  C    4.159152   3.567859   2.372543   1.412434   0.000000
    11  C    5.013315   4.709468   3.635471   2.420087   1.373347
    12  C    4.846881   4.949557   4.159733   2.802670   2.413802
    13  C    3.756772   4.173555   3.717504   2.453289   2.805642
    14  C    2.431256   2.761359   2.451206   1.429360   2.449665
    15  H    1.083113   2.170247   3.365591   3.828847   5.240570
    16  H    2.164838   1.088934   2.040731   3.264148   4.412998
    17  H    4.749252   3.866115   2.560141   2.143743   1.086080
    18  H    6.070193   5.667537   4.507088   3.406295   2.135919
    19  H    5.826801   6.017532   5.246127   3.889314   3.392969
    20  H    4.157577   4.860842   4.618091   3.443624   3.890911
                   11         12         13         14         15
    11  C    0.000000
    12  C    1.410761   0.000000
    13  C    2.421848   1.374609   0.000000
    14  C    2.807494   2.418114   1.415655   0.000000
    15  H    6.082947   5.837623   4.662369   3.424745   0.000000
    16  H    5.648388   5.998975   5.261466   3.850140   2.494793
    17  H    2.153420   3.411858   3.891463   3.421296   5.800826
    18  H    1.086816   2.166150   3.399218   3.894232   7.145741
    19  H    2.165973   1.086695   2.130904   3.402212   6.775118
    20  H    3.401423   2.128925   1.085720   2.177727   4.896553
                   16         17         18         19         20
    16  H    0.000000
    17  H    4.503408   0.000000
    18  H    6.546342   2.489828   0.000000
    19  H    7.075061   4.307290   2.488579   0.000000
    20  H    5.941085   4.976784   4.286972   2.442004   0.000000
 Stoichiometry    C9H6FNO2S
 Framework group  C1[X(C9H6FNO2S)]
 Deg. of freedom    54
 Full point group                 C1      NOp   1
 Largest Abelian subgroup         C1      NOp   1
 Largest concise Abelian subgroup C1      NOp   1
                         Standard orientation:                         
 ---------------------------------------------------------------------
 Center     Atomic      Atomic             Coordinates (Angstroms)
 Number     Number       Type             X           Y           Z
 ---------------------------------------------------------------------
      1          8           0       -2.258822   -0.801627   -1.427712
      2         16           0       -1.977756   -0.473935   -0.051107
      3          8           0       -1.965906   -1.481004    0.983604
      4          9           0       -3.060442    0.625287    0.389135
      5          6           0       -0.514528    0.523595    0.045844
      6          6           0       -0.599190    1.892053    0.034242
      7          6           0        0.607065    2.622850    0.015695
      8          7           0        1.796881    2.077632   -0.007725
      9          6           0        1.886037    0.722452   -0.002340
     10          6           0        3.175539    0.146922   -0.032716
     11          6           0        3.332881   -1.217366   -0.026219
     12          6           0        2.203834   -2.062065    0.018312
     13          6           0        0.933605   -1.537749    0.052363
     14          6           0        0.743071   -0.135098    0.033814
     15          1           0       -1.552237    2.406632    0.040944
     16          1           0        0.574071    3.711283    0.014677
     17          1           0        4.026718    0.820919   -0.060875
     18          1           0        4.329383   -1.650425   -0.050997
     19          1           0        2.337861   -3.140375    0.032186
     20          1           0        0.082049   -2.208584    0.112539
 ---------------------------------------------------------------------
 Rotational constants (GHZ):           1.1431715           0.5209788           0.3858461
 Standard basis: 6-31G(d) (6D, 7F)
 There are   226 symmetry adapted cartesian basis functions of A   symmetry.
 There are   226 symmetry adapted basis functions of A   symmetry.
   226 basis functions,   440 primitive gaussians,   226 cartesian basis functions
    54 alpha electrons       54 beta electrons
       nuclear repulsion energy      1010.4543198441 Hartrees.
 NAtoms=   20 NActive=   20 NUniq=   20 SFac= 1.00D+00 NAtFMM=   60 NAOKFM=F Big=F
 Integral buffers will be    131072 words long.
 Raffenetti 2 integral format.
 Two-electron integral symmetry is turned on.
 R6APFD:  NTU= -4 IXU= 1 FactS= 1.050
 Nuclear repulsion after empirical dispersion term =     1010.4359346446 Hartrees.
 One-electron integrals computed using PRISM.
 NBasis=   226 RedAO= T EigKep=  3.76D-04  NBF=   226
 NBsUse=   226 1.00D-06 EigRej= -1.00D+00 NBFU=   226
 Initial guess from the checkpoint file:  "GVVHDCOFBIOZJP-UHFFFAOYSA-N_conf_0_0.chk"
 B after Tr=    -0.000000    0.000000    0.000000
         Rot=    0.999517   -0.028026   -0.006396    0.011801 Ang=  -3.56 deg.
 ExpMin= 1.17D-01 ExpMax= 2.19D+04 ExpMxC= 3.30D+03 IAcc=2 IRadAn=         4 AccDes= 0.00D+00
 Harris functional with IExCor= 3731 and IRadAn=       4 diagonalized for initial guess.
 HarFok:  IExCor= 3731 AccDes= 0.00D+00 IRadAn=         4 IDoV= 1 UseB2=F ITyADJ=14
 ICtDFT=  3500011 ScaDFX=  1.000000  1.000000  1.000000  1.000000
 FoFCou: FMM=F IPFlag=           0 FMFlag=      100000 FMFlg1=           0
         NFxFlg=           0 DoJE=T BraDBF=F KetDBF=T FulRan=T
         wScrn=  0.000000 ICntrl=       500 IOpCl=  0 I1Cent=   200000004 NGrid=           0
         NMat0=    1 NMatS0=      1 NMatT0=    0 NMatD0=    1 NMtDS0=    0 NMtDT0=    0
 Petite list used in FoFCou.
 Keep R1 ints in memory in canonical form, NReq=334849580.
 Requested convergence on RMS density matrix=1.00D-08 within  32 cycles.
 Requested convergence on MAX density matrix=1.00D-06.
 Requested convergence on             energy=1.00D-06.
 No special actions if energy rises.
 Integral accuracy reduced to 1.0D-05 until final iterations.
 Initial convergence to 1.0D-05 achieved.  Increase integral accuracy.
 SCF Done:  E(RAPFD) =  -1049.12930660     A.U. after   15 cycles
            NFock= 15  Conv=0.46D-08     -V/T= 2.0065
 QCSCF skips out because SCF is already converged.
 R6APFD:  NTU= -4 IXU= 1 FactS= 1.050
 Calling FoFJK, ICntrl=      2127 FMM=F ISym2X=0 I1Cent= 0 IOpClX= 0 NMat=1 NMatS=1 NMatT=0.
 ***** Axes restored to original set *****
 -------------------------------------------------------------------
 Center     Atomic                   Forces (Hartrees/Bohr)
 Number     Number              X              Y              Z
 -------------------------------------------------------------------
      1        8          -0.001603014   -0.000604638   -0.000545498
      2       16           0.002179420   -0.000455335   -0.001167056
      3        8          -0.002747243   -0.000241131    0.001608046
      4        9          -0.001896742    0.000427938    0.000901605
      5        6           0.000548643   -0.000183022    0.000465870
      6        6          -0.002475325   -0.001970618    0.000274676
      7        6           0.000376303    0.003465263    0.000024642
      8        7           0.002686425    0.000558219   -0.000541796
      9        6          -0.000635621    0.000887735    0.000403099
     10        6           0.003724887    0.000409377   -0.000557659
     11        6           0.001160668    0.001183528   -0.000253229
     12        6          -0.000868521   -0.000437378    0.000140908
     13        6           0.000935823   -0.002819964   -0.000127188
     14        6          -0.000619899   -0.001423752   -0.000134013
     15        1          -0.000417187   -0.000105585   -0.000049666
     16        1          -0.000532165    0.000007088    0.000090769
     17        1          -0.000534617    0.000340972    0.000082311
     18        1           0.000068168   -0.000058781   -0.000007898
     19        1          -0.000001544   -0.000032519    0.000027071
     20        1           0.000651539    0.001052603   -0.000634996
 -------------------------------------------------------------------
 Cartesian Forces:  Max     0.003724887 RMS     0.001214766

 GradGradGradGradGradGradGradGradGradGradGradGradGradGradGradGradGradGrad
 Berny optimization.
 Using GEDIIS/GDIIS optimizer.
 FormGI is forming the generalized inverse of G from B-inverse, IUseBI=4.
 Internal  Forces:  Max     0.006799451 RMS     0.001548193
 Search for a local minimum.
 Step number   2 out of a maximum of  111
 All quantities printed in internal units (Hartrees-Bohrs-Radians)
 Mixed Optimization -- RFO/linear search
 Update second derivatives using D2CorX and points    1    2
 DE= -9.29D-03 DEPred=-1.01D-02 R= 9.23D-01
 TightC=F SS=  1.41D+00  RLast= 7.90D-01 DXNew= 5.0454D-01 2.3706D+00
 Trust test= 9.23D-01 RLast= 7.90D-01 DXMaxT set to 5.05D-01
 ITU=  1  0
 Use linear search instead of GDIIS.
     Eigenvalues ---   -0.00075   0.01105   0.01310   0.01596   0.01749
     Eigenvalues ---    0.01810   0.02006   0.02166   0.02279   0.02470
     Eigenvalues ---    0.02645   0.02743   0.02895   0.02978   0.03659
     Eigenvalues ---    0.11200   0.11803   0.11923   0.12470   0.12812
     Eigenvalues ---    0.13126   0.13940   0.16153   0.17086   0.18432
     Eigenvalues ---    0.19296   0.19422   0.19816   0.20666   0.21960
     Eigenvalues ---    0.22547   0.23420   0.25781   0.27752   0.31631
     Eigenvalues ---    0.32662   0.36281   0.36393   0.36464   0.36585
     Eigenvalues ---    0.36712   0.37455   0.38933   0.39858   0.41535
     Eigenvalues ---    0.44799   0.46212   0.47643   0.50476   0.51156
     Eigenvalues ---    0.52803   0.56439   0.68109   0.68238
 RFO step:  Lambda=-2.35685603D-03 EMin=-7.46708079D-04
 Quartic linear search produced a step of -0.04452.
 Iteration  1 RMS(Cart)=  0.11301591 RMS(Int)=  0.05231663
 Iteration  2 RMS(Cart)=  0.08800647 RMS(Int)=  0.00842794
 Iteration  3 RMS(Cart)=  0.00994224 RMS(Int)=  0.00034655
 Iteration  4 RMS(Cart)=  0.00011160 RMS(Int)=  0.00033997
 Iteration  5 RMS(Cart)=  0.00000002 RMS(Int)=  0.00033997
 Variable       Old X    -DE/DX   Delta X   Delta X   Delta X     New X
                                 (Linear)    (Quad)   (Total)
    R1        2.72633   0.00107   0.00044   0.00113   0.00157   2.72790
    R2        2.72865   0.00055   0.00033  -0.00320  -0.00286   2.72578
    R3        3.03200   0.00203  -0.00099   0.01410   0.01311   3.04511
    R4        3.35154   0.00337  -0.00086   0.01815   0.01729   3.36883
    R5        2.59105   0.00104   0.00190  -0.00551  -0.00342   2.58763
    R6        2.68286   0.00473  -0.00044   0.00759   0.00732   2.69019
    R7        2.66542   0.00309  -0.00301   0.01996   0.01696   2.68238
    R8        2.04679   0.00037   0.00009   0.00005   0.00015   2.04693
    R9        2.47365   0.00187   0.00322  -0.01054  -0.00750   2.46615
   R10        2.05779   0.00016  -0.00017   0.00090   0.00073   2.05852
   R11        2.56648   0.00092  -0.00113   0.00685   0.00553   2.57201
   R12        2.66911   0.00251  -0.00203   0.01616   0.01410   2.68322
   R13        2.70110   0.00423  -0.00166   0.01585   0.01416   2.71526
   R14        2.59525  -0.00030   0.00188  -0.01012  -0.00826   2.58699
   R15        2.05239  -0.00006   0.00017  -0.00121  -0.00104   2.05135
   R16        2.66595   0.00190  -0.00206   0.01408   0.01201   2.67796
   R17        2.05379   0.00008   0.00001   0.00004   0.00005   2.05383
   R18        2.59763   0.00081   0.00165  -0.00751  -0.00584   2.59179
   R19        2.05356   0.00003   0.00006  -0.00008  -0.00002   2.05354
   R20        2.67520   0.00209   0.00042   0.00139   0.00183   2.67703
   R21        2.05171  -0.00131   0.00023  -0.00380  -0.00357   2.04815
    A1        2.12579  -0.00142   0.00072  -0.00028   0.00019   2.12598
    A2        1.86081  -0.00159  -0.00108  -0.00052  -0.00153   1.85927
    A3        1.91840   0.00189  -0.00157   0.01575   0.01402   1.93242
    A4        1.86162  -0.00290  -0.00111  -0.00885  -0.00992   1.85170
    A5        1.92446   0.00365  -0.00184   0.01585   0.01385   1.93830
    A6        1.72783   0.00012   0.00612  -0.03122  -0.02506   1.70278
    A7        2.10592  -0.00583  -0.00260  -0.01000  -0.01439   2.09154
    A8        2.05941   0.00680   0.00227   0.02197   0.02241   2.08182
    A9        2.11494  -0.00097   0.00047  -0.00482  -0.00532   2.10962
   A10        2.05377   0.00146  -0.00040   0.00697   0.00698   2.06075
   A11        2.12757  -0.00093   0.00061  -0.00465  -0.00424   2.12333
   A12        2.10184  -0.00053  -0.00022  -0.00233  -0.00275   2.09909
   A13        2.16732  -0.00041  -0.00056   0.00026  -0.00030   2.16703
   A14        2.08516  -0.00033   0.00151  -0.00970  -0.00822   2.07694
   A15        2.03069   0.00073  -0.00094   0.00949   0.00853   2.03921
   A16        2.06600  -0.00016   0.00053  -0.00438  -0.00413   2.06187
   A17        2.05606  -0.00220   0.00015  -0.00938  -0.00921   2.04685
   A18        2.14869   0.00103  -0.00011   0.00529   0.00515   2.15385
   A19        2.07844   0.00118  -0.00004   0.00410   0.00404   2.08248
   A20        2.10515  -0.00051   0.00112  -0.00700  -0.00593   2.09922
   A21        2.05239  -0.00040   0.00091  -0.01082  -0.00989   2.04250
   A22        2.12565   0.00091  -0.00202   0.01782   0.01582   2.14146
   A23        2.09817  -0.00013  -0.00048   0.00064   0.00012   2.09829
   A24        2.09529   0.00012  -0.00003   0.00282   0.00279   2.09809
   A25        2.08971   0.00002   0.00051  -0.00342  -0.00291   2.08680
   A26        2.10824   0.00125  -0.00097   0.00907   0.00811   2.11635
   A27        2.08959  -0.00061   0.00044  -0.00435  -0.00394   2.08565
   A28        2.08534  -0.00064   0.00053  -0.00466  -0.00416   2.08118
   A29        2.09667   0.00017   0.00083  -0.00354  -0.00282   2.09385
   A30        2.08342  -0.00002  -0.00159   0.01182   0.01003   2.09345
   A31        2.10291  -0.00015   0.00076  -0.00768  -0.00712   2.09579
   A32        2.01550  -0.00094   0.00008  -0.00283  -0.00243   2.01306
   A33        2.18807   0.00289   0.00038   0.00575   0.00594   2.19401
   A34        2.07962  -0.00195  -0.00046  -0.00293  -0.00352   2.07610
    D1        1.61146  -0.00084   0.01586   0.42561   0.44153   2.05299
    D2       -1.44908  -0.00079   0.01225   0.32661   0.33858  -1.11051
    D3       -2.28086   0.00230   0.01395   0.45454   0.46876  -1.81210
    D4        0.94178   0.00235   0.01034   0.35554   0.36581   1.30759
    D5       -0.33330   0.00028   0.01484   0.43536   0.45038   0.11709
    D6        2.88934   0.00033   0.01123   0.33636   0.34744  -3.04641
    D7       -3.06256  -0.00059  -0.00352  -0.11213  -0.11467   3.10596
    D8        0.08118  -0.00036  -0.00361  -0.10731  -0.11011  -0.02894
    D9       -0.00462  -0.00029   0.00021  -0.00871  -0.00877  -0.01338
   D10        3.13912  -0.00007   0.00011  -0.00389  -0.00421   3.13491
   D11        3.05114   0.00008   0.00403   0.12910   0.13382  -3.09822
   D12       -0.08855   0.00024   0.00394   0.13285   0.13736   0.04881
   D13       -0.00897   0.00036   0.00040   0.02981   0.03021   0.02124
   D14        3.13453   0.00052   0.00031   0.03355   0.03374  -3.11492
   D15        0.01536   0.00005  -0.00068  -0.01797  -0.01851  -0.00315
   D16       -3.13257   0.00014  -0.00040  -0.00726  -0.00773  -3.14030
   D17       -3.12835  -0.00017  -0.00059  -0.02271  -0.02300   3.13184
   D18        0.00690  -0.00008  -0.00031  -0.01200  -0.01222  -0.00531
   D19       -0.01043   0.00011   0.00046   0.01998   0.02038   0.00996
   D20        3.13733   0.00003   0.00019   0.00964   0.00986  -3.13599
   D21        3.13766  -0.00019   0.00017  -0.00235  -0.00211   3.13556
   D22       -0.00514  -0.00002   0.00023   0.00458   0.00470  -0.00044
   D23        3.13919   0.00022   0.00011   0.01367   0.01359  -3.13040
   D24       -0.00219   0.00017   0.00010   0.01003   0.01000   0.00780
   D25       -0.00124   0.00006   0.00006   0.00703   0.00707   0.00583
   D26        3.14056   0.00001   0.00005   0.00339   0.00348  -3.13915
   D27        0.01443  -0.00020  -0.00064  -0.02848  -0.02912  -0.01468
   D28       -3.12893  -0.00035  -0.00056  -0.03196  -0.03239   3.12187
   D29       -3.12838  -0.00004  -0.00059  -0.02148  -0.02219   3.13262
   D30        0.01144  -0.00018  -0.00051  -0.02496  -0.02545  -0.01402
   D31       -0.00599   0.00006   0.00027   0.00966   0.00990   0.00391
   D32        3.14030  -0.00002   0.00006  -0.00004  -0.00005   3.14026
   D33        3.13539   0.00011   0.00028   0.01345   0.01370  -3.13410
   D34       -0.00151   0.00003   0.00007   0.00375   0.00376   0.00225
   D35        0.00288  -0.00006  -0.00013  -0.00822  -0.00839  -0.00550
   D36       -3.13200  -0.00010  -0.00043  -0.01847  -0.01898   3.13221
   D37        3.13979   0.00002   0.00008   0.00146   0.00151   3.14130
   D38        0.00491  -0.00001  -0.00022  -0.00878  -0.00908  -0.00417
   D39        0.00755  -0.00004  -0.00034  -0.01017  -0.01053  -0.00298
   D40       -3.11389  -0.00018  -0.00123  -0.04414  -0.04561   3.12369
   D41       -3.14073  -0.00001  -0.00004   0.00005   0.00003  -3.14070
   D42        0.02101  -0.00015  -0.00094  -0.03392  -0.03504  -0.01403
   D43        3.12503   0.00002   0.00074   0.02280   0.02355  -3.13460
   D44       -0.01460   0.00018   0.00065   0.02667   0.02720   0.01260
   D45       -0.03694   0.00017   0.00164   0.05738   0.05888   0.02194
   D46        3.10661   0.00033   0.00156   0.06125   0.06253  -3.11405
         Item               Value     Threshold  Converged?
 Maximum Force            0.006799     0.000450     NO 
 RMS     Force            0.001548     0.000300     NO 
 Maximum Displacement     0.847690     0.001800     NO 
 RMS     Displacement     0.193937     0.001200     NO 
 Predicted change in Energy=-2.536765D-03
 GradGradGradGradGradGradGradGradGradGradGradGradGradGradGradGradGradGrad

                          Input orientation:                          
 ---------------------------------------------------------------------
 Center     Atomic      Atomic             Coordinates (Angstroms)
 Number     Number       Type             X           Y           Z
 ---------------------------------------------------------------------
      1          8           0       -2.543824   -1.978518   -0.828306
      2         16           0       -2.470827   -1.175164    0.368819
      3          8           0       -2.371086   -1.770336    1.678935
      4          9           0       -3.800244   -0.264809    0.391769
      5          6           0       -1.287054    0.143227    0.172435
      6          6           0       -1.702280    1.446568    0.235000
      7          6           0       -0.721863    2.466326    0.117816
      8          7           0        0.553610    2.241643   -0.042767
      9          6           0        0.973631    0.948990   -0.114078
     10          6           0        2.363945    0.725676   -0.296469
     11          6           0        2.851693   -0.550066   -0.389637
     12          6           0        1.971597   -1.657866   -0.309452
     13          6           0        0.622814   -1.483836   -0.131794
     14          6           0        0.086372   -0.177377   -0.021243
     15          1           0       -2.744724    1.704981    0.375835
     16          1           0       -1.035331    3.508421    0.166723
     17          1           0        3.000347    1.602835   -0.359389
     18          1           0        3.915925   -0.719756   -0.530484
     19          1           0        2.370340   -2.665239   -0.393649
     20          1           0       -0.033040   -2.345699   -0.090062
 ---------------------------------------------------------------------
                    Distance matrix (angstroms):
                    1          2          3          4          5
     1  O    0.000000
     2  S    1.443542   0.000000
     3  O    2.521792   1.442422   0.000000
     4  F    2.450300   1.611404   2.442519   0.000000
     5  C    2.661344   1.782706   2.665781   2.555529   0.000000
     6  C    3.683751   2.735334   3.588972   2.711981   1.369316
     7  C    4.896051   4.047509   4.806904   4.124388   2.391488
     8  N    5.293480   4.581615   5.254910   5.042537   2.799591
     9  C    4.631729   4.075477   4.668700   4.951674   2.417031
    10  C    5.628650   5.237444   5.705507   6.281079   3.726783
    11  C    5.598616   5.412506   5.748519   6.703748   4.233888
    12  C    4.556429   4.519755   4.777575   5.978835   3.754325
    13  C    3.279853   3.149049   3.510592   4.617747   2.527347
    14  C    3.288371   2.772542   3.386328   3.909476   1.423585
    15  H    3.880526   2.893148   3.730349   2.234826   2.145985
    16  H    5.776862   4.902802   5.651221   4.683232   3.374601
    17  H    6.616933   6.179103   6.662232   7.092276   4.560165
    18  H    6.587984   6.465814   6.746240   7.784394   5.320698
    19  H    4.980915   5.122361   5.251436   6.667462   4.645908
    20  H    2.642700   2.742905   2.987784   4.330599   2.799322
                    6          7          8          9         10
     6  C    0.000000
     7  C    1.419456   0.000000
     8  N    2.407975   1.305029   0.000000
     9  C    2.744074   2.287090   1.361049   0.000000
    10  C    4.163692   3.567030   2.374833   1.419897   0.000000
    11  C    5.011525   4.703874   3.632512   2.418722   1.368976
    12  C    4.840590   4.944314   4.157882   2.798179   2.415653
    13  C    3.758706   4.180220   3.727185   2.458054   2.817906
    14  C    2.429431   2.767986   2.463826   1.436855   2.465481
    15  H    1.083190   2.176738   3.367825   3.825925   5.244953
    16  H    2.168115   1.089319   2.042877   3.265802   4.417385
    17  H    4.742618   3.850739   2.548499   2.143658   1.085530
    18  H    6.069856   5.663964   4.506985   3.408108   2.133701
    19  H    5.821374   6.013009   5.244151   3.884792   3.392314
    20  H    4.156118   4.865518   4.624943   3.445132   3.901472
                   11         12         13         14         15
    11  C    0.000000
    12  C    1.417117   0.000000
    13  C    2.430290   1.371519   0.000000
    14  C    2.814536   2.414329   1.416625   0.000000
    15  H    6.082028   5.832842   4.665464   3.422871   0.000000
    16  H    5.647106   5.996572   5.268889   3.857286   2.493622
    17  H    2.158239   3.419502   3.902820   3.431436   5.792826
    18  H    1.086841   2.170096   3.404020   3.901151   7.145979
    19  H    2.169257   1.086686   2.125589   3.397743   6.771618
    20  H    3.411118   2.130684   1.083833   2.172697   4.896764
                   16         17         18         19         20
    16  H    0.000000
    17  H    4.493856   0.000000
    18  H    6.548168   2.502396   0.000000
    19  H    7.072955   4.314458   2.488466   0.000000
    20  H    5.944850   4.986471   4.293249   2.443462   0.000000
 Stoichiometry    C9H6FNO2S
 Framework group  C1[X(C9H6FNO2S)]
 Deg. of freedom    54
 Full point group                 C1      NOp   1
 Largest Abelian subgroup         C1      NOp   1
 Largest concise Abelian subgroup C1      NOp   1
                         Standard orientation:                         
 ---------------------------------------------------------------------
 Center     Atomic      Atomic             Coordinates (Angstroms)
 Number     Number       Type             X           Y           Z
 ---------------------------------------------------------------------
      1          8           0       -2.104509   -1.297983   -1.163268
      2         16           0       -1.997455   -0.483847    0.023971
      3          8           0       -2.223534   -1.026736    1.341067
      4          9           0       -3.053103    0.721162   -0.149761
      5          6           0       -0.510706    0.498968   -0.017183
      6          6           0       -0.597444    1.865498   -0.026973
      7          6           0        0.610078    2.611561   -0.015314
      8          7           0        1.800877    2.078106    0.007590
      9          6           0        1.896016    0.720387    0.009289
     10          6           0        3.200324    0.159509    0.026760
     11          6           0        3.367568   -1.199172    0.016184
     12          6           0        2.239680   -2.056483   -0.017082
     13          6           0        0.963767   -1.553632   -0.032889
     14          6           0        0.754993   -0.152627   -0.012273
     15          1           0       -1.553593    2.374400   -0.036959
     16          1           0        0.558665    3.699648   -0.021639
     17          1           0        4.035269    0.852982    0.045151
     18          1           0        4.366438   -1.627347    0.028323
     19          1           0        2.386222   -3.133109   -0.034040
     20          1           0        0.116747   -2.228513   -0.075151
 ---------------------------------------------------------------------
 Rotational constants (GHZ):           1.1472888           0.5122152           0.3813244
 Standard basis: 6-31G(d) (6D, 7F)
[...]
    13  C   -0.034166   0.356716
    14  C    0.002792  -0.034523
    15  H   -0.000000  -0.000002
    16  H    0.000000   0.000000
    17  H   -0.000142   0.000010
    18  H   -0.004224  -0.000140
    19  H    0.524396  -0.003918
    20  H   -0.003918   0.472535
 Mulliken charges:
               1
     1  O   -0.481386
     2  S    1.284559
     3  O   -0.481382
     4  F   -0.301379
     5  C   -0.262807
     6  C   -0.228280
     7  C    0.035344
     8  N   -0.435211
     9  C    0.290623
    10  C   -0.208363
    11  C   -0.168601
    12  C   -0.178577
    13  C   -0.235803
    14  C    0.147819
    15  H    0.224779
    16  H    0.225291
    17  H    0.188903
    18  H    0.179590
    19  H    0.180542
    20  H    0.224342
 Sum of Mulliken charges =  -0.00000
 Mulliken charges with hydrogens summed into heavy atoms:
               1
     1  O   -0.481386
     2  S    1.284559
     3  O   -0.481382
     4  F   -0.301379
     5  C   -0.262807
     6  C   -0.003501
     7  C    0.260635
     8  N   -0.435211
     9  C    0.290623
    10  C   -0.019460
    11  C    0.010989
    12  C    0.001964
    13  C   -0.011462
    14  C    0.147819
 Electronic spatial extent (au):  <R**2>=           2751.3848
 Charge=             -0.0000 electrons
 Dipole moment (field-independent basis, Debye):
    X=              3.8753    Y=              3.3567    Z=              0.0001  Tot=              5.1269
 Quadrupole moment (field-independent basis, Debye-Ang):
   XX=            -82.3969   YY=            -72.4730   ZZ=            -92.9540
   XY=             -5.2953   XZ=              0.0001   YZ=              0.0004
 Traceless Quadrupole moment (field-independent basis, Debye-Ang):
   XX=              0.2111   YY=             10.1349   ZZ=            -10.3460
   XY=             -5.2953   XZ=              0.0001   YZ=              0.0004
 Octapole moment (field-independent basis, Debye-Ang**2):
  XXX=              4.9921  YYY=             22.5539  ZZZ=              0.0008  XYY=              1.9905
  XXY=              5.8965  XXZ=              0.0039  XZZ=            -12.2018  YZZ=              5.0144
  YYZ=              0.0016  XYZ=              0.0001
 Hexadecapole moment (field-independent basis, Debye-Ang**3):
 XXXX=          -2054.7707 YYYY=           -903.8280 ZZZZ=           -195.6398 XXXY=            -30.1927
 XXXZ=              0.0001 YYYX=            -18.8340 YYYZ=              0.0036 ZZZX=             -0.0006
 ZZZY=              0.0009 XXYY=           -516.4339 XXZZ=           -440.2760 YYZZ=           -232.9128
 XXYZ=             -0.0039 YYXZ=              0.0014 ZZXY=             -4.1157
 N-N= 1.008804726586D+03 E-N=-4.482803705743D+03  KE= 1.042158686370D+03
 Evaluate density.
 Using the total density.
 Monte-Carlo method of calculating molar volume:
 based on  0.001 e/bohr**3 density envelope.
 Number of points per bohr**3 =   20 CutOff= 1.00D-04
 Using the CI density.
 There are       422 points.  Will hold       422 in memory.
 LenV=   805158006 MDV=   805306368.
 Box volume = 9432.273 fraction occupied=0.164
 Integrated density= 1.0890741840460410D+02 error= 9.0741840460410117D-01
 Molar volume = 1542.244 bohr**3/mol (137.628 cm**3/mol)
 Recommended a0 for SCRF calculation =  4.67 angstrom (  8.83 bohr)
 ******************************Gaussian NBO Version 3.1******************************
             N A T U R A L   A T O M I C   O R B I T A L   A N D
          N A T U R A L   B O N D   O R B I T A L   A N A L Y S I S
 ******************************Gaussian NBO Version 3.1******************************
       /RESON  / : Allow strongly delocalized NBO set

 Analyzing the CI density

 Job title: GVVHDCOFBIOZJP-UHFFFAOYSA-N_conf_0                              

 Storage needed:    154674 in NPA ( 805304168 available)


 NATURAL POPULATIONS:  Natural atomic orbital occupancies 
                                                          
   NAO  Atom  No  lang   Type(AO)    Occupancy
 --------------------------------------------
     1    O    1  S      Cor( 1S)     1.99988
     2    O    1  S      Val( 2S)     1.82825
     3    O    1  S      Ryd( 3S)     0.00122
     4    O    1  S      Ryd( 4S)     0.00001
     5    O    1  px     Val( 2p)     1.75041
     6    O    1  px     Ryd( 3p)     0.00085
     7    O    1  py     Val( 2p)     1.71199
     8    O    1  py     Ryd( 3p)     0.00054
     9    O    1  pz     Val( 2p)     1.57202
    10    O    1  pz     Ryd( 3p)     0.00066
    11    O    1  dxy    Ryd( 3d)     0.00144
    12    O    1  dxz    Ryd( 3d)     0.00491
    13    O    1  dyz    Ryd( 3d)     0.00615
    14    O    1  dx2y2  Ryd( 3d)     0.00167
    15    O    1  dz2    Ryd( 3d)     0.00662
 
    16    S    2  S      Cor( 1S)     2.00000
    17    S    2  S      Cor( 2S)     1.99902
    18    S    2  S      Val( 3S)     1.03103
    19    S    2  S      Ryd( 4S)     0.00449
    20    S    2  S      Ryd( 5S)     0.00024
    21    S    2  px     Cor( 2p)     1.99987
    22    S    2  px     Val( 3p)     0.85719
    23    S    2  px     Ryd( 4p)     0.00769
    24    S    2  py     Cor( 2p)     1.99987
    25    S    2  py     Val( 3p)     0.77256
    26    S    2  py     Ryd( 4p)     0.00955
    27    S    2  pz     Cor( 2p)     1.99990
    28    S    2  pz     Val( 3p)     0.70085
    29    S    2  pz     Ryd( 4p)     0.01442
    30    S    2  dxy    Ryd( 3d)     0.03389
    31    S    2  dxz    Ryd( 3d)     0.03743
    32    S    2  dyz    Ryd( 3d)     0.03868
    33    S    2  dx2y2  Ryd( 3d)     0.01357
    34    S    2  dz2    Ryd( 3d)     0.04638
 
    35    O    3  S      Cor( 1S)     1.99988
    36    O    3  S      Val( 2S)     1.82825
    37    O    3  S      Ryd( 3S)     0.00122
    38    O    3  S      Ryd( 4S)     0.00001
    39    O    3  px     Val( 2p)     1.75042
    40    O    3  px     Ryd( 3p)     0.00085
    41    O    3  py     Val( 2p)     1.71200
    42    O    3  py     Ryd( 3p)     0.00054
    43    O    3  pz     Val( 2p)     1.57201
    44    O    3  pz     Ryd( 3p)     0.00066
    45    O    3  dxy    Ryd( 3d)     0.00144
    46    O    3  dxz    Ryd( 3d)     0.00491
    47    O    3  dyz    Ryd( 3d)     0.00615
    48    O    3  dx2y2  Ryd( 3d)     0.00167
    49    O    3  dz2    Ryd( 3d)     0.00662
 
    50    F    4  S      Cor( 1S)     1.99997
    51    F    4  S      Val( 2S)     1.92422
    52    F    4  S      Ryd( 3S)     0.00197
    53    F    4  S      Ryd( 4S)     0.00015
    54    F    4  px     Val( 2p)     1.81260
    55    F    4  px     Ryd( 3p)     0.00032
    56    F    4  py     Val( 2p)     1.80109
    57    F    4  py     Ryd( 3p)     0.00022
    58    F    4  pz     Val( 2p)     1.95527
    59    F    4  pz     Ryd( 3p)     0.00015
    60    F    4  dxy    Ryd( 3d)     0.00188
    61    F    4  dxz    Ryd( 3d)     0.00111
    62    F    4  dyz    Ryd( 3d)     0.00088
    63    F    4  dx2y2  Ryd( 3d)     0.00192
    64    F    4  dz2    Ryd( 3d)     0.00061
 
    65    C    5  S      Cor( 1S)     1.99858
    66    C    5  S      Val( 2S)     0.94545
    67    C    5  S      Ryd( 3S)     0.00201
    68    C    5  S      Ryd( 4S)     0.00006
    69    C    5  px     Val( 2p)     1.08954
    70    C    5  px     Ryd( 3p)     0.00692
    71    C    5  py     Val( 2p)     1.11152
    72    C    5  py     Ryd( 3p)     0.00637
    73    C    5  pz     Val( 2p)     1.21470
    74    C    5  pz     Ryd( 3p)     0.00650
    75    C    5  dxy    Ryd( 3d)     0.00079
    76    C    5  dxz    Ryd( 3d)     0.00053
    77    C    5  dyz    Ryd( 3d)     0.00076
    78    C    5  dx2y2  Ryd( 3d)     0.00054
    79    C    5  dz2    Ryd( 3d)     0.00046
 
    80    C    6  S      Cor( 1S)     1.99894
    81    C    6  S      Val( 2S)     0.96398
    82    C    6  S      Ryd( 3S)     0.00094
    83    C    6  S      Ryd( 4S)     0.00003
    84    C    6  px     Val( 2p)     1.15221
    85    C    6  px     Ryd( 3p)     0.00590
    86    C    6  py     Val( 2p)     1.09146
    87    C    6  py     Ryd( 3p)     0.00461
    88    C    6  pz     Val( 2p)     1.07457
    89    C    6  pz     Ryd( 3p)     0.00271
    90    C    6  dxy    Ryd( 3d)     0.00060
    91    C    6  dxz    Ryd( 3d)     0.00051
    92    C    6  dyz    Ryd( 3d)     0.00090
    93    C    6  dx2y2  Ryd( 3d)     0.00061
    94    C    6  dz2    Ryd( 3d)     0.00050
 
    95    C    7  S      Cor( 1S)     1.99917
    96    C    7  S      Val( 2S)     0.93914
    97    C    7  S      Ryd( 3S)     0.00155
    98    C    7  S      Ryd( 4S)     0.00007
    99    C    7  px     Val( 2p)     0.90852
   100    C    7  px     Ryd( 3p)     0.00694
   101    C    7  py     Val( 2p)     1.16861
   102    C    7  py     Ryd( 3p)     0.00525
   103    C    7  pz     Val( 2p)     1.00695
   104    C    7  pz     Ryd( 3p)     0.00256
   105    C    7  dxy    Ryd( 3d)     0.00084
   106    C    7  dxz    Ryd( 3d)     0.00215
   107    C    7  dyz    Ryd( 3d)     0.00052
   108    C    7  dx2y2  Ryd( 3d)     0.00132
   109    C    7  dz2    Ryd( 3d)     0.00056
 
   110    N    8  S      Cor( 1S)     1.99891
   111    N    8  S      Val( 2S)     1.26166
   112    N    8  S      Ryd( 3S)     0.00025
   113    N    8  S      Ryd( 4S)     0.00000
   114    N    8  px     Val( 2p)     1.15126
   115    N    8  px     Ryd( 3p)     0.00365
   116    N    8  py     Val( 2p)     1.17207
   117    N    8  py     Ryd( 3p)     0.00324
   118    N    8  pz     Val( 2p)     1.53014
   119    N    8  pz     Ryd( 3p)     0.00268
   120    N    8  dxy    Ryd( 3d)     0.00032
   121    N    8  dxz    Ryd( 3d)     0.00168
   122    N    8  dyz    Ryd( 3d)     0.00105
   123    N    8  dx2y2  Ryd( 3d)     0.00082
   124    N    8  dz2    Ryd( 3d)     0.00012
 
   125    C    9  S      Cor( 1S)     1.99892
   126    C    9  S      Val( 2S)     0.84478
   127    C    9  S      Ryd( 3S)     0.00125
   128    C    9  S      Ryd( 4S)     0.00010
   129    C    9  px     Val( 2p)     1.08947
   130    C    9  px     Ryd( 3p)     0.00532
   131    C    9  py     Val( 2p)     0.90089
   132    C    9  py     Ryd( 3p)     0.00613
   133    C    9  pz     Val( 2p)     1.00353
   134    C    9  pz     Ryd( 3p)     0.00066
   135    C    9  dxy    Ryd( 3d)     0.00083
   136    C    9  dxz    Ryd( 3d)     0.00078
   137    C    9  dyz    Ryd( 3d)     0.00198
   138    C    9  dx2y2  Ryd( 3d)     0.00124
   139    C    9  dz2    Ryd( 3d)     0.00044
 
   140    C   10  S      Cor( 1S)     1.99904
   141    C   10  S      Val( 2S)     0.95224
   142    C   10  S      Ryd( 3S)     0.00087
   143    C   10  S      Ryd( 4S)     0.00002
   144    C   10  px     Val( 2p)     1.11322
   145    C   10  px     Ryd( 3p)     0.00449
   146    C   10  py     Val( 2p)     1.13388
   147    C   10  py     Ryd( 3p)     0.00521
   148    C   10  pz     Val( 2p)     1.06591
   149    C   10  pz     Ryd( 3p)     0.00144
   150    C   10  dxy    Ryd( 3d)     0.00076
   151    C   10  dxz    Ryd( 3d)     0.00040
   152    C   10  dyz    Ryd( 3d)     0.00051
   153    C   10  dx2y2  Ryd( 3d)     0.00050
   154    C   10  dz2    Ryd( 3d)     0.00045
 
   155    C   11  S      Cor( 1S)     1.99910
   156    C   11  S      Val( 2S)     0.96337
   157    C   11  S      Ryd( 3S)     0.00059
   158    C   11  S      Ryd( 4S)     0.00002
   159    C   11  px     Val( 2p)     1.18104
   160    C   11  px     Ryd( 3p)     0.00515
   161    C   11  py     Val( 2p)     1.08323
   162    C   11  py     Ryd( 3p)     0.00453
   163    C   11  pz     Val( 2p)     0.98950
   164    C   11  pz     Ryd( 3p)     0.00082
   165    C   11  dxy    Ryd( 3d)     0.00067
   166    C   11  dxz    Ryd( 3d)     0.00036
   167    C   11  dyz    Ryd( 3d)     0.00070
   168    C   11  dx2y2  Ryd( 3d)     0.00072
   169    C   11  dz2    Ryd( 3d)     0.00044
 
   170    C   12  S      Cor( 1S)     1.99911
   171    C   12  S      Val( 2S)     0.96167
   172    C   12  S      Ryd( 3S)     0.00063
   173    C   12  S      Ryd( 4S)     0.00003
   174    C   12  px     Val( 2p)     1.05799
   175    C   12  px     Ryd( 3p)     0.00453
   176    C   12  py     Val( 2p)     1.20420
   177    C   12  py     Ryd( 3p)     0.00551
   178    C   12  pz     Val( 2p)     0.99914
   179    C   12  pz     Ryd( 3p)     0.00082
   180    C   12  dxy    Ryd( 3d)     0.00057
   181    C   12  dxz    Ryd( 3d)     0.00070
   182    C   12  dyz    Ryd( 3d)     0.00035
   183    C   12  dx2y2  Ryd( 3d)     0.00082
   184    C   12  dz2    Ryd( 3d)     0.00044
 
   185    C   13  S      Cor( 1S)     1.99903
   186    C   13  S      Val( 2S)     0.94717
   187    C   13  S      Ryd( 3S)     0.00079
   188    C   13  S      Ryd( 4S)     0.00004
   189    C   13  px     Val( 2p)     1.17586
   190    C   13  px     Ryd( 3p)     0.00462
   191    C   13  py     Val( 2p)     1.07766
   192    C   13  py     Ryd( 3p)     0.00439
   193    C   13  pz     Val( 2p)     1.03806
   194    C   13  pz     Ryd( 3p)     0.00144
   195    C   13  dxy    Ryd( 3d)     0.00070
   196    C   13  dxz    Ryd( 3d)     0.00049
   197    C   13  dyz    Ryd( 3d)     0.00043
   198    C   13  dx2y2  Ryd( 3d)     0.00063
   199    C   13  dz2    Ryd( 3d)     0.00045
 
   200    C   14  S      Cor( 1S)     1.99892
   201    C   14  S      Val( 2S)     0.86482
   202    C   14  S      Ryd( 3S)     0.00056
   203    C   14  S      Ryd( 4S)     0.00005
   204    C   14  px     Val( 2p)     1.04731
   205    C   14  px     Ryd( 3p)     0.00459
   206    C   14  py     Val( 2p)     1.10333
   207    C   14  py     Ryd( 3p)     0.00579
   208    C   14  pz     Val( 2p)     1.02632
   209    C   14  pz     Ryd( 3p)     0.00148
   210    C   14  dxy    Ryd( 3d)     0.00076
   211    C   14  dxz    Ryd( 3d)     0.00075
   212    C   14  dyz    Ryd( 3d)     0.00088
   213    C   14  dx2y2  Ryd( 3d)     0.00050
   214    C   14  dz2    Ryd( 3d)     0.00039
 
   215    H   15  S      Val( 1S)     0.70814
   216    H   15  S      Ryd( 2S)     0.00100
 
   217    H   16  S      Val( 1S)     0.72475
   218    H   16  S      Ryd( 2S)     0.00054
 
   219    H   17  S      Val( 1S)     0.73957
   220    H   17  S      Ryd( 2S)     0.00078
 
   221    H   18  S      Val( 1S)     0.74465
   222    H   18  S      Ryd( 2S)     0.00070
 
   223    H   19  S      Val( 1S)     0.74476
   224    H   19  S      Ryd( 2S)     0.00069
 
   225    H   20  S      Val( 1S)     0.72502
   226    H   20  S      Ryd( 2S)     0.00169

 WARNING:  1 low occupancy (<1.9990e) core orbital  found on  C    5
           1 low occupancy (<1.9990e) core orbital  found on  C    6
           1 low occupancy (<1.9990e) core orbital  found on  N    8
           1 low occupancy (<1.9990e) core orbital  found on  C    9
           1 low occupancy (<1.9990e) core orbital  found on  C   14


 Summary of Natural Population Analysis:                  
                                                          
                                       Natural Population 
                Natural  -----------------------------------------------
    Atom  No    Charge         Core      Valence    Rydberg      Total
 -----------------------------------------------------------------------
      O    1   -0.88662      1.99988     6.86268    0.02406     8.88662
      S    2    2.43335      9.99867     3.36164    0.20635    13.56665
      O    3   -0.88662      1.99988     6.86268    0.02406     8.88662
      F    4   -0.50236      1.99997     7.49318    0.00921     9.50236
      C    5   -0.38473      1.99858     4.36120    0.02494     6.38473
      C    6   -0.29848      1.99894     4.28222    0.01731     6.29848
      C    7   -0.04415      1.99917     4.02321    0.02177     6.04415
      N    8   -0.12786      1.99891     5.11514    0.01381     7.12786
      C    9    0.14368      1.99892     3.83867    0.01873     5.85632
      C   10   -0.27896      1.99904     4.26525    0.01467     6.27896
      C   11   -0.23023      1.99910     4.21713    0.01399     6.23023
      C   12   -0.23651      1.99911     4.22301    0.01439     6.23651
      C   13   -0.25175      1.99903     4.23875    0.01396     6.25175
      C   14   -0.05646      1.99892     4.04178    0.01576     6.05646
      H   15    0.29086      0.00000     0.70814    0.00100     0.70914
      H   16    0.27470      0.00000     0.72475    0.00054     0.72530
      H   17    0.25965      0.00000     0.73957    0.00078     0.74035
      H   18    0.25466      0.00000     0.74465    0.00070     0.74534
      H   19    0.25455      0.00000     0.74476    0.00069     0.74545
      H   20    0.27329      0.00000     0.72502    0.00169     0.72671
 =======================================================================
   * Total *   -0.00000     35.98814    71.57344    0.43841   108.00000

                                 Natural Population      
 --------------------------------------------------------
   Core                      35.98814 ( 99.9671% of  36)
   Valence                   71.57344 ( 99.4076% of  72)
   Natural Minimal Basis    107.56159 ( 99.5941% of 108)
   Natural Rydberg Basis      0.43841 (  0.4059% of 108)
 --------------------------------------------------------

    Atom  No          Natural Electron Configuration
 ----------------------------------------------------------------------------
      O    1      [core]2S( 1.83)2p( 5.03)3d( 0.02)
      S    2      [core]3S( 1.03)3p( 2.33)3d( 0.17)4p( 0.03)
      O    3      [core]2S( 1.83)2p( 5.03)3d( 0.02)
      F    4      [core]2S( 1.92)2p( 5.57)3d( 0.01)
      C    5      [core]2S( 0.95)2p( 3.42)3p( 0.02)
      C    6      [core]2S( 0.96)2p( 3.32)3p( 0.01)
      C    7      [core]2S( 0.94)2p( 3.08)3p( 0.01)3d( 0.01)
      N    8      [core]2S( 1.26)2p( 3.85)3p( 0.01)
      C    9      [core]2S( 0.84)2p( 2.99)3p( 0.01)3d( 0.01)
      C   10      [core]2S( 0.95)2p( 3.31)3p( 0.01)
      C   11      [core]2S( 0.96)2p( 3.25)3p( 0.01)
      C   12      [core]2S( 0.96)2p( 3.26)3p( 0.01)
      C   13      [core]2S( 0.95)2p( 3.29)3p( 0.01)
      C   14      [core]2S( 0.86)2p( 3.18)3p( 0.01)
      H   15            1S( 0.71)
      H   16            1S( 0.72)
      H   17            1S( 0.74)
      H   18            1S( 0.74)
      H   19            1S( 0.74)
      H   20            1S( 0.73)


 NBO analysis skipped by request.
 1\1\GINC-DELLA-R3C3N9\SP\RAPFD TD-FC\6-31G(d)\C9H6F1N1O2S1\SHIVAANI\16
 -Feb-2024\0\\# TD(NStates=10, Root=1) APFD/6-31G* volume pop=NPA densi
 ty=current Geom=AllCheck Guess=Read\\GVVHDCOFBIOZJP-UHFFFAOYSA-N_conf_
 0\\0,1\O,0,-2.582166461,-1.8768851181,-0.9010935124\S,0,-2.4452680425,
 -1.1772562844,0.3541908058\O,0,-2.2196121043,-1.8781643817,1.595869974
 3\F,0,-3.7966215822,-0.3280961611,0.5508031016\C,0,-1.2881997236,0.162
 8849659,0.1869074702\C,0,-1.705887227,1.4675731728,0.2483500342\C,0,-0
 .7262120604,2.4794162703,0.1067620739\N,0,0.5505234636,2.2472033834,-0
 .0786599401\C,0,0.9677493045,0.9548768452,-0.1399536281\C,0,2.34961729
 14,0.7198531786,-0.3405516906\C,0,2.833518783,-0.5633661993,-0.4114371
 726\C,0,1.9555804321,-1.6640366598,-0.2846715055\C,0,0.6082326581,-1.4
 743968637,-0.089137192\C,0,0.0809145818,-0.1620232797,-0.0119310846\H,
 0,-2.7460336397,1.7291247348,0.3994661676\H,0,-1.0304287101,3.52409953
 27,0.1515252141\H,0,2.9945562659,1.5885028453,-0.4336348214\H,0,3.8949
 899108,-0.7389116381,-0.5655087411\H,0,2.3505111843,-2.6748121612,-0.3
 425026479\H,0,-0.0457643247,-2.3355861818,0.0052070946\\Version=ES64L-
 G16RevA.03\State=1-A\HF=-1049.1297716\RMSD=3.173e-09\Dipole=1.1317358,
 1.6616629,-0.1632818\Quadrupole=2.328832,5.1513366,-7.4801686,-5.17962
 04,-1.4569936,0.7589706\PG=C01 [X(C9H6F1N1O2S1)]\\@


 HE THAT RISETH LATE MUST TROT ALL DAY.

                  -- BENJAMIN FRANKLIN
 Job cpu time:       0 days  0 hours 19 minutes 33.3 seconds.
 Elapsed time:       0 days  0 hours  6 minutes 41.6 seconds.
 File lengths (MBytes):  RWF=    453 Int=      0 D2E=      0 Chk=    268 Scr=      1
 Normal termination of Gaussian 16 at Fri Feb 16 15:56:24 2024.
