 Entering Gaussian System, Link 0=g16
 Input=BWRLFZKXJHLHOU-UHFFFAOYSA-N_conf_0.gjf
 Output=BWRLFZKXJHLHOU-UHFFFAOYSA-N_conf_0.log
 Initial command:
 /opt/export/g16/l1.exe "/tmp/Gau-3737079.inp" -scrdir="/tmp/"
 Entering Link 1 = /opt/export/g16/l1.exe PID=   3737083.
  
 Copyright (c) 1988,1990,1992,1993,1995,1998,2003,2009,2016,
            Gaussian, Inc.  All Rights Reserved.
  
 This is part of the Gaussian(R) 16 program.  It is based on
 the Gaussian(R) 09 system (copyright 2009, Gaussian, Inc.),
 the Gaussian(R) 03 system (copyright 2003, Gaussian, Inc.),
 the Gaussian(R) 98 system (copyright 1998, Gaussian, Inc.),
 the Gaussian(R) 94 system (copyright 1995, Gaussian, Inc.),
 the Gaussian 92(TM) system (copyright 1992, Gaussian, Inc.),
 the Gaussian 90(TM) system (copyright 1990, Gaussian, Inc.),
 the Gaussian 88(TM) system (copyright 1988, Gaussian, Inc.),
 the Gaussian 86(TM) system (copyright 1986, Carnegie Mellon
 University), and the Gaussian 82(TM) system (copyright 1983,
 Carnegie Mellon University). Gaussian is a federally registered
 trademark of Gaussian, Inc.
  
 This software contains proprietary and confidential information,
 including trade secrets, belonging to Gaussian, Inc.
  
 This software is provided under written license and may be
 used, copied, transmitted, or stored only in accord with that
 written license.
  
 The following legend is applicable only to US Government
 contracts under FAR:
  
                    RESTRICTED RIGHTS LEGEND
  
 Use, reproduction and disclosure by the US Government is
 subject to restrictions as set forth in subparagraphs (a)
 and (c) of the Commercial Computer Software - Restricted
 Rights clause in FAR 52.227-19.
  
 Gaussian, Inc.
 340 Quinnipiac St., Bldg. 40, Wallingford CT 06492
  
  
 ---------------------------------------------------------------
 Warning -- This program may not be used in any manner that
 competes with the business of Gaussian, Inc. or will provide
 assistance to any competitor of Gaussian, Inc.  The licensee
 of this program is prohibited from giving any competitor of
 Gaussian, Inc. access to this program.  By using this program,
 the user acknowledges that Gaussian, Inc. is engaged in the
 business of creating and licensing software in the field of
 computational chemistry and represents and warrants to the
 licensee that it is not a competitor of Gaussian, Inc. and that
 it will not use this program in any manner prohibited above.
 ---------------------------------------------------------------
  

 Cite this work as:
 Gaussian 16, Revision A.03,
 M. J. Frisch, G. W. Trucks, H. B. Schlegel, G. E. Scuseria, 
 M. A. Robb, J. R. Cheeseman, G. Scalmani, V. Barone, 
 G. A. Petersson, H. Nakatsuji, X. Li, M. Caricato, A. V. Marenich, 
 J. Bloino, B. G. Janesko, R. Gomperts, B. Mennucci, H. P. Hratchian, 
 J. V. Ortiz, A. F. Izmaylov, J. L. Sonnenberg, D. Williams-Young, 
 F. Ding, F. Lipparini, F. Egidi, J. Goings, B. Peng, A. Petrone, 
 T. Henderson, D. Ranasinghe, V. G. Zakrzewski, J. Gao, N. Rega, 
 G. Zheng, W. Liang, M. Hada, M. Ehara, K. Toyota, R. Fukuda, 
 J. Hasegawa, M. Ishida, T. Nakajima, Y. Honda, O. Kitao, H. Nakai, 
 T. Vreven, K. Throssell, J. A. Montgomery, Jr., J. E. Peralta, 
 F. Ogliaro, M. J. Bearpark, J. J. Heyd, E. N. Brothers, K. N. Kudin, 
 V. N. Staroverov, T. A. Keith, R. Kobayashi, J. Normand, 
 K. Raghavachari, A. P. Rendell, J. C. Burant, S. S. Iyengar, 
 J. Tomasi, M. Cossi, J. M. Millam, M. Klene, C. Adamo, R. Cammi, 
 J. W. Ochterski, R. L. Martin, K. Morokuma, O. Farkas, 
 J. B. Foresman, and D. J. Fox, Gaussian, Inc., Wallingford CT, 2016.
 
 ******************************************
 Gaussian 16:  ES64L-G16RevA.03 25-Dec-2016
                28-Jan-2024 
 ******************************************
 %nprocshared=3
 Will use up to    3 processors via shared memory.
 %mem=6GB
 %Chk=BWRLFZKXJHLHOU-UHFFFAOYSA-N_conf_0_0.chk
 --------------------------------
 # opt=CalcFc APFD/6-31G* scf=xqc
 --------------------------------
 1/10=4,18=20,19=15,26=3,38=1/1,3;
 2/9=110,12=2,17=6,18=5,40=1/2;
 3/5=1,6=6,7=1,11=2,25=1,30=1,71=2,74=-44,140=1/1,2,3;
 4//1;
 5/5=2,8=3,13=1,38=5/2,8;
 8/6=4,10=90,11=11/1;
 11/6=1,8=1,9=11,15=111,16=1/1,2,10;
 10/6=1,13=1/2;
 6/7=2,8=2,9=2,10=2,28=1/1;
 7/10=1,18=20,25=1/1,2,3,16;
 1/10=4,18=20,19=15,26=3/3(2);
 2/9=110/2;
 99//99;
 2/9=110/2;
 3/5=1,6=6,7=1,11=2,25=1,30=1,71=1,74=-44/1,2,3;
 4/5=5,16=3,69=1/1;
 5/5=2,8=3,13=1,38=5/2,8;
 7//1,2,3,16;
 1/18=20,19=15,26=3/3(-5);
 2/9=110/2;
 6/7=2,8=2,9=2,10=2,19=2,28=1/1;
 99/9=1/99;
 ----------------------------------
 BWRLFZKXJHLHOU-UHFFFAOYSA-N_conf_0
 ----------------------------------
 Symbolic Z-matrix:
 Charge =  0 Multiplicity = 1
 F                     4.47063   0.15013  -0.3244 
 S                     3.65281  -0.59531   0.82463 
 C                     1.9205   -0.33851   0.47227 
 N                     1.67657   0.39213  -0.63149 
 C                     0.35585   0.54392  -0.8333 
 N                    -0.20399   1.23499  -1.87016 
 C                    -1.50256   1.13343  -1.68792 
 N                    -1.80004   0.40209  -0.57138 
 C                    -3.12448   0.10291  -0.08863 
 C                    -0.61906   0.01036  -0.00234 
 C                    -0.2637   -0.72716   1.10944 
 N                     1.04897  -0.90419   1.34979 
 O                     3.99634   0.11746   2.04349 
 O                     3.96618  -2.00303   0.64634 
 H                    -2.25996   1.56696  -2.32968 
 H                    -3.24997  -0.98267  -0.0714 
 H                    -3.86744   0.55126  -0.7531 
 H                    -3.22858   0.51777   0.91715 
 H                    -0.96808  -1.17255   1.80069 
 

 GradGradGradGradGradGradGradGradGradGradGradGradGradGradGradGradGradGrad
 Berny optimization.
 Initialization pass.
                           ----------------------------
                           !    Initial Parameters    !
                           ! (Angstroms and Degrees)  !
 --------------------------                            --------------------------
 ! Name  Definition              Value          Derivative Info.                !
 --------------------------------------------------------------------------------
 ! R1    R(1,2)                  1.5952         calculate D2E/DX2 analytically  !
 ! R2    R(2,3)                  1.7863         calculate D2E/DX2 analytically  !
 ! R3    R(2,13)                 1.4532         calculate D2E/DX2 analytically  !
 ! R4    R(2,14)                 1.4532         calculate D2E/DX2 analytically  !
 ! R5    R(3,4)                  1.346          calculate D2E/DX2 analytically  !
 ! R6    R(3,12)                 1.36           calculate D2E/DX2 analytically  !
 ! R7    R(4,5)                  1.3446         calculate D2E/DX2 analytically  !
 ! R8    R(5,6)                  1.366          calculate D2E/DX2 analytically  !
 ! R9    R(5,10)                 1.3877         calculate D2E/DX2 analytically  !
 ! R10   R(6,7)                  1.3152         calculate D2E/DX2 analytically  !
 ! R11   R(7,8)                  1.3675         calculate D2E/DX2 analytically  !
 ! R12   R(7,15)                 1.0833         calculate D2E/DX2 analytically  !
 ! R13   R(8,9)                  1.4411         calculate D2E/DX2 analytically  !
 ! R14   R(8,10)                 1.3682         calculate D2E/DX2 analytically  !
 ! R15   R(9,16)                 1.0929         calculate D2E/DX2 analytically  !
 ! R16   R(9,17)                 1.093          calculate D2E/DX2 analytically  !
 ! R17   R(9,18)                 1.0929         calculate D2E/DX2 analytically  !
 ! R18   R(10,11)                1.3807         calculate D2E/DX2 analytically  !
 ! R19   R(11,12)                1.3462         calculate D2E/DX2 analytically  !
 ! R20   R(11,19)                1.0828         calculate D2E/DX2 analytically  !
 ! A1    A(1,2,3)              106.7321         calculate D2E/DX2 analytically  !
 ! A2    A(1,2,13)             104.6997         calculate D2E/DX2 analytically  !
 ! A3    A(1,2,14)             104.6997         calculate D2E/DX2 analytically  !
 ! A4    A(3,2,13)             108.9162         calculate D2E/DX2 analytically  !
 ! A5    A(3,2,14)             108.9161         calculate D2E/DX2 analytically  !
 ! A6    A(13,2,14)            121.8097         calculate D2E/DX2 analytically  !
 ! A7    A(2,3,4)              114.5538         calculate D2E/DX2 analytically  !
 ! A8    A(2,3,12)             115.7458         calculate D2E/DX2 analytically  !
 ! A9    A(4,3,12)             129.7003         calculate D2E/DX2 analytically  !
 ! A10   A(3,4,5)              111.2456         calculate D2E/DX2 analytically  !
 ! A11   A(4,5,6)              124.9989         calculate D2E/DX2 analytically  !
 ! A12   A(4,5,10)             123.8328         calculate D2E/DX2 analytically  !
 ! A13   A(6,5,10)             111.1683         calculate D2E/DX2 analytically  !
 ! A14   A(5,6,7)              105.0938         calculate D2E/DX2 analytically  !
 ! A15   A(6,7,8)              111.6676         calculate D2E/DX2 analytically  !
 ! A16   A(6,7,15)             125.2638         calculate D2E/DX2 analytically  !
 ! A17   A(8,7,15)             123.0686         calculate D2E/DX2 analytically  !
 ! A18   A(7,8,9)              125.7669         calculate D2E/DX2 analytically  !
 ! A19   A(7,8,10)             107.7537         calculate D2E/DX2 analytically  !
 ! A20   A(9,8,10)             126.4794         calculate D2E/DX2 analytically  !
 ! A21   A(8,9,16)             108.4823         calculate D2E/DX2 analytically  !
 ! A22   A(8,9,17)             109.6287         calculate D2E/DX2 analytically  !
 ! A23   A(8,9,18)             108.4825         calculate D2E/DX2 analytically  !
 ! A24   A(16,9,17)            109.8151         calculate D2E/DX2 analytically  !
 ! A25   A(16,9,18)            110.5845         calculate D2E/DX2 analytically  !
 ! A26   A(17,9,18)            109.8169         calculate D2E/DX2 analytically  !
 ! A27   A(5,10,8)             104.3166         calculate D2E/DX2 analytically  !
 ! A28   A(5,10,11)            120.4481         calculate D2E/DX2 analytically  !
 ! A29   A(8,10,11)            135.2353         calculate D2E/DX2 analytically  !
 ! A30   A(10,11,12)           117.7099         calculate D2E/DX2 analytically  !
 ! A31   A(10,11,19)           124.4979         calculate D2E/DX2 analytically  !
 ! A32   A(12,11,19)           117.7922         calculate D2E/DX2 analytically  !
 ! A33   A(3,12,11)            117.0633         calculate D2E/DX2 analytically  !
 ! D1    D(1,2,3,4)              0.0031         calculate D2E/DX2 analytically  !
 ! D2    D(1,2,3,12)          -179.9957         calculate D2E/DX2 analytically  !
 ! D3    D(13,2,3,4)           112.5302         calculate D2E/DX2 analytically  !
 ! D4    D(13,2,3,12)          -67.4686         calculate D2E/DX2 analytically  !
 ! D5    D(14,2,3,4)          -112.5239         calculate D2E/DX2 analytically  !
 ! D6    D(14,2,3,12)           67.4773         calculate D2E/DX2 analytically  !
 ! D7    D(2,3,4,5)           -179.9985         calculate D2E/DX2 analytically  !
 ! D8    D(12,3,4,5)             0.0001         calculate D2E/DX2 analytically  !
 ! D9    D(2,3,12,11)         -179.9998         calculate D2E/DX2 analytically  !
 ! D10   D(4,3,12,11)            0.0017         calculate D2E/DX2 analytically  !
 ! D11   D(3,4,5,6)            179.9997         calculate D2E/DX2 analytically  !
 ! D12   D(3,4,5,10)            -0.0011         calculate D2E/DX2 analytically  !
 ! D13   D(4,5,6,7)            179.9987         calculate D2E/DX2 analytically  !
 ! D14   D(10,5,6,7)            -0.0005         calculate D2E/DX2 analytically  !
 ! D15   D(4,5,10,8)          -179.9991         calculate D2E/DX2 analytically  !
 ! D16   D(4,5,10,11)            0.0004         calculate D2E/DX2 analytically  !
 ! D17   D(6,5,10,8)             0.0001         calculate D2E/DX2 analytically  !
 ! D18   D(6,5,10,11)          179.9997         calculate D2E/DX2 analytically  !
 ! D19   D(5,6,7,8)              0.0008         calculate D2E/DX2 analytically  !
 ! D20   D(5,6,7,15)          -179.9973         calculate D2E/DX2 analytically  !
 ! D21   D(6,7,8,9)            180.0            calculate D2E/DX2 analytically  !
 ! D22   D(6,7,8,10)            -0.0007         calculate D2E/DX2 analytically  !
 ! D23   D(15,7,8,9)            -0.0019         calculate D2E/DX2 analytically  !
 ! D24   D(15,7,8,10)          179.9974         calculate D2E/DX2 analytically  !
 ! D25   D(7,8,9,16)           119.9123         calculate D2E/DX2 analytically  !
 ! D26   D(7,8,9,17)            -0.0006         calculate D2E/DX2 analytically  !
 ! D27   D(7,8,9,18)          -119.9158         calculate D2E/DX2 analytically  !
 ! D28   D(10,8,9,16)          -60.0869         calculate D2E/DX2 analytically  !
 ! D29   D(10,8,9,17)         -179.9998         calculate D2E/DX2 analytically  !
 ! D30   D(10,8,9,18)           60.085          calculate D2E/DX2 analytically  !
 ! D31   D(7,8,10,5)             0.0004         calculate D2E/DX2 analytically  !
 ! D32   D(7,8,10,11)         -179.9991         calculate D2E/DX2 analytically  !
 ! D33   D(9,8,10,5)           179.9997         calculate D2E/DX2 analytically  !
 ! D34   D(9,8,10,11)            0.0002         calculate D2E/DX2 analytically  !
 ! D35   D(5,10,11,12)           0.0014         calculate D2E/DX2 analytically  !
 ! D36   D(5,10,11,19)        -179.9989         calculate D2E/DX2 analytically  !
 ! D37   D(8,10,11,12)        -179.9992         calculate D2E/DX2 analytically  !
 ! D38   D(8,10,11,19)           0.0005         calculate D2E/DX2 analytically  !
 ! D39   D(10,11,12,3)          -0.0023         calculate D2E/DX2 analytically  !
 ! D40   D(19,11,12,3)         179.998          calculate D2E/DX2 analytically  !
 --------------------------------------------------------------------------------
 Trust Radius=3.00D-01 FncErr=1.00D-07 GrdErr=1.00D-06 EigMax=2.50D+02 EigMin=1.00D-04
 Number of steps in this run=    103 maximum allowed number of steps=    114.
 GradGradGradGradGradGradGradGradGradGradGradGradGradGradGradGradGradGrad

                          Input orientation:                          
 ---------------------------------------------------------------------
 Center     Atomic      Atomic             Coordinates (Angstroms)
 Number     Number       Type             X           Y           Z
 ---------------------------------------------------------------------
      1          9           0        4.470628    0.150135   -0.324398
      2         16           0        3.652815   -0.595309    0.824635
      3          6           0        1.920504   -0.338511    0.472272
      4          7           0        1.676568    0.392127   -0.631492
      5          6           0        0.355849    0.543922   -0.833302
      6          7           0       -0.203991    1.234993   -1.870157
      7          6           0       -1.502556    1.133426   -1.687921
      8          7           0       -1.800043    0.402086   -0.571382
      9          6           0       -3.124479    0.102906   -0.088625
     10          6           0       -0.619060    0.010365   -0.002337
     11          6           0       -0.263697   -0.727157    1.109436
     12          7           0        1.048974   -0.904187    1.349793
     13          8           0        3.996339    0.117464    2.043487
     14          8           0        3.966181   -2.003026    0.646336
     15          1           0       -2.259963    1.566963   -2.329676
     16          1           0       -3.249966   -0.982673   -0.071405
     17          1           0       -3.867443    0.551257   -0.753105
     18          1           0       -3.228582    0.517768    0.917149
     19          1           0       -0.968077   -1.172548    1.800692
 ---------------------------------------------------------------------
                    Distance matrix (angstroms):
                    1          2          3          4          5
     1  F    0.000000
     2  S    1.595237   0.000000
     3  C    2.715988   1.786339   0.000000
     4  N    2.821283   2.645919   1.345969   0.000000
     5  C    4.164787   3.862199   2.220666   1.344644   0.000000
     6  N    5.041661   5.048451   3.532190   2.404416   1.366042
     7  C    6.205239   5.989935   4.307015   3.431093   2.128746
     8  N    6.280589   5.716408   3.934485   3.477145   2.176371
     9  C    7.598912   6.874101   5.095224   4.840290   3.586324
    10  C    5.101782   4.393135   2.606981   2.410702   1.387672
    11  C    5.023878   3.929066   2.308193   2.836944   2.402854
    12  N    3.952496   2.674169   1.359998   2.449448   2.709860
    13  O    2.415139   1.453153   2.643051   3.551378   4.659500
    14  O    2.415139   1.453154   2.643048   3.551328   4.659482
    15  H    7.164454   7.041736   5.381268   4.445261   3.182487
    16  H    7.807357   6.971465   5.238730   5.145339   3.989095
    17  H    8.358715   7.769051   5.982772   5.547627   4.224060
    18  H    7.807332   6.971451   5.238723   5.145345   3.989099
    19  H    5.987070   4.757997   3.286977   3.918912   3.411301
                    6          7          8          9         10
     6  N    0.000000
     7  C    1.315218   0.000000
     8  N    2.219895   1.367485   0.000000
     9  C    3.603433   2.500070   1.441073   0.000000
    10  C    2.271728   2.209757   1.368203   2.508612   0.000000
    11  C    3.568133   3.580747   2.541790   3.210674   1.380674
    12  N    4.063753   4.459807   3.676162   4.527802   2.333880
    13  O    5.848782   6.722606   6.365265   7.433180   5.049630
    14  O    5.848747   6.722587   6.365277   7.433207   5.049649
    15  H    2.132694   1.083268   2.158718   2.813034   3.245315
    16  H    4.175107   3.185033   2.066352   1.092943   2.812928
    17  H    3.890525   2.608734   2.080725   1.092953   3.377604
    18  H    4.175121   3.185057   2.066356   1.092946   2.812920
    19  H    4.455919   4.215875   2.966205   3.137892   2.184493
                   11         12         13         14         15
    11  C    0.000000
    12  N    1.346186   0.000000
    13  O    4.442268   3.195613   0.000000
    14  O    4.442316   3.195683   2.539570   0.000000
    15  H    4.590812   5.531197   7.769615   7.769578   0.000000
    16  H    3.221409   4.528449   7.628368   7.323186   3.546905
    17  H    4.253279   5.541810   8.357521   8.357539   2.470066
    18  H    3.221391   4.528424   7.323139   7.628392   3.546957
    19  H    1.082756   2.084185   5.135028   5.135089   5.121897
                   16         17         18         19
    16  H    0.000000
    17  H    1.788556   0.000000
    18  H    1.796947   1.788578   0.000000
    19  H    2.957671   4.230804   2.957651   0.000000
 Stoichiometry    C6H5FN4O2S
 Framework group  C1[X(C6H5FN4O2S)]
 Deg. of freedom    51
 Full point group                 C1      NOp   1
 Largest Abelian subgroup         C1      NOp   1
 Largest concise Abelian subgroup C1      NOp   1
                         Standard orientation:                         
 ---------------------------------------------------------------------
 Center     Atomic      Atomic             Coordinates (Angstroms)
 Number     Number       Type             X           Y           Z
 ---------------------------------------------------------------------
      1          9           0       -2.948594    1.454143   -0.000082
      2         16           0       -2.577746   -0.097390    0.000004
      3          6           0       -0.794351   -0.199891    0.000018
      4          7           0       -0.165710    0.990252    0.000022
      5          6           0        1.170029    0.835757   -0.000001
      6          7           0        2.076920    1.857333   -0.000009
      7          6           0        3.253925    1.270429   -0.000004
      8          7           0        3.138659   -0.092190   -0.000009
      9          6           0        4.232791   -1.030043   -0.000006
     10          6           0        1.805087   -0.398072   -0.000002
     11          6           0        1.066978   -1.564886    0.000012
     12          7           0       -0.274859   -1.456762   -0.000003
     13          8           0       -3.078276   -0.596226   -1.269754
     14          8           0       -3.078284   -0.596086    1.269816
     15          1           0        4.208314    1.782884    0.000034
     16          1           0        4.159440   -1.647997    0.898481
     17          1           0        5.181510   -0.487384   -0.000010
     18          1           0        4.159417   -1.648036   -0.898467
     19          1           0        1.493265   -2.560195    0.000028
 ---------------------------------------------------------------------
 Rotational constants (GHZ):           1.7766016           0.3528087           0.3138033
 Standard basis: 6-31G(d) (6D, 7F)
 There are   224 symmetry adapted cartesian basis functions of A   symmetry.
 There are   224 symmetry adapted basis functions of A   symmetry.
   224 basis functions,   436 primitive gaussians,   224 cartesian basis functions
    55 alpha electrons       55 beta electrons
       nuclear repulsion energy      1028.5624932343 Hartrees.
 NAtoms=   19 NActive=   19 NUniq=   19 SFac= 1.00D+00 NAtFMM=   60 NAOKFM=F Big=F
 Integral buffers will be    131072 words long.
 Raffenetti 2 integral format.
 Two-electron integral symmetry is turned on.
 R6APFD:  NTU= -4 IXU= 1 FactS= 1.050
 Nuclear repulsion after empirical dispersion term =     1028.5464149909 Hartrees.
 One-electron integrals computed using PRISM.
 NBasis=   224 RedAO= T EigKep=  7.91D-04  NBF=   224
 NBsUse=   224 1.00D-06 EigRej= -1.00D+00 NBFU=   224
 ExpMin= 1.17D-01 ExpMax= 2.19D+04 ExpMxC= 3.30D+03 IAcc=3 IRadAn=         5 AccDes= 0.00D+00
 Harris functional with IExCor= 3731 and IRadAn=       5 diagonalized for initial guess.
 HarFok:  IExCor= 3731 AccDes= 0.00D+00 IRadAn=         5 IDoV= 1 UseB2=F ITyADJ=14
 ICtDFT=  3500011 ScaDFX=  1.000000  1.000000  1.000000  1.000000
 FoFCou: FMM=F IPFlag=           0 FMFlag=      100000 FMFlg1=           0
         NFxFlg=           0 DoJE=T BraDBF=F KetDBF=T FulRan=T
         wScrn=  0.000000 ICntrl=       500 IOpCl=  0 I1Cent=   200000004 NGrid=           0
         NMat0=    1 NMatS0=      1 NMatT0=    0 NMatD0=    1 NMtDS0=    0 NMtDT0=    0
 Petite list used in FoFCou.
 Keep R1 ints in memory in canonical form, NReq=323229189.
 Requested convergence on RMS density matrix=1.00D-08 within  32 cycles.
 Requested convergence on MAX density matrix=1.00D-06.
 Requested convergence on             energy=1.00D-06.
 No special actions if energy rises.
 Integral accuracy reduced to 1.0D-05 until final iterations.
 Initial convergence to 1.0D-05 achieved.  Increase integral accuracy.
 SCF Done:  E(RAPFD) =  -1098.41426155     A.U. after   15 cycles
            NFock= 15  Conv=0.69D-08     -V/T= 2.0067
 QCSCF skips out because SCF is already converged.
 DoSCS=F DFT=T ScalE2(SS,OS)=  1.000000  1.000000
 Range of M.O.s used for correlation:     1   224
 NBasis=   224 NAE=    55 NBE=    55 NFC=     0 NFV=     0
 NROrb=    224 NOA=    55 NOB=    55 NVA=   169 NVB=   169
 R6APFD:  NTU= -4 IXU= 1 FactS= 1.050
 Symmetrizing basis deriv contribution to polar:
 IMax=3 JMax=2 DiffMx= 0.00D+00
 G2DrvN: will do    20 centers at a time, making    1 passes.
 Calling FoFCou, ICntrl=  3107 FMM=F I1Cent=   0 AccDes= 0.00D+00.
 End of G2Drv F.D. properties file   721 does not exist.
 End of G2Drv F.D. properties file   722 does not exist.
 End of G2Drv F.D. properties file   788 does not exist.
          IDoAtm=1111111111111111111
          Differentiating once with respect to nuclear coordinates.
 Keep R1 ints in memory in canonical form, NReq=323237193.
          There are    60 degrees of freedom in the 1st order CPHF.  IDoFFX=6 NUNeed=     0.
     54 vectors produced by pass  0 Test12= 1.55D-14 1.67D-09 XBig12= 3.07D-01 2.09D-01.
 AX will form    54 AO Fock derivatives at one time.
     54 vectors produced by pass  1 Test12= 1.55D-14 1.67D-09 XBig12= 5.03D-02 7.18D-02.
     54 vectors produced by pass  2 Test12= 1.55D-14 1.67D-09 XBig12= 8.50D-04 7.19D-03.
     54 vectors produced by pass  3 Test12= 1.55D-14 1.67D-09 XBig12= 9.74D-06 5.33D-04.
     54 vectors produced by pass  4 Test12= 1.55D-14 1.67D-09 XBig12= 5.75D-08 5.25D-05.
     51 vectors produced by pass  5 Test12= 1.55D-14 1.67D-09 XBig12= 1.28D-10 1.92D-06.
     28 vectors produced by pass  6 Test12= 1.55D-14 1.67D-09 XBig12= 1.80D-13 7.07D-08.
      2 vectors produced by pass  7 Test12= 1.55D-14 1.67D-09 XBig12= 1.94D-16 2.44D-09.
 InvSVY:  IOpt=1 It=  1 EMax= 5.27D-16
 Solved reduced A of dimension   351 with    60 vectors.
 End of Minotr F.D. properties file   721 does not exist.
 End of Minotr F.D. properties file   722 does not exist.
 End of Minotr F.D. properties file   788 does not exist.

 **********************************************************************

            Population analysis using the SCF density.

 **********************************************************************

 Orbital symmetries:
       Occupied  (A) (A) (A) (A) (A) (A) (A) (A) (A) (A) (A) (A)
                 (A) (A) (A) (A) (A) (A) (A) (A) (A) (A) (A) (A)
                 (A) (A) (A) (A) (A) (A) (A) (A) (A) (A) (A) (A)
                 (A) (A) (A) (A) (A) (A) (A) (A) (A) (A) (A) (A)
                 (A) (A) (A) (A) (A) (A) (A)
       Virtual   (A) (A) (A) (A) (A) (A) (A) (A) (A) (A) (A) (A)
                 (A) (A) (A) (A) (A) (A) (A) (A) (A) (A) (A) (A)
                 (A) (A) (A) (A) (A) (A) (A) (A) (A) (A) (A) (A)
                 (A) (A) (A) (A) (A) (A) (A) (A) (A) (A) (A) (A)
                 (A) (A) (A) (A) (A) (A) (A) (A) (A) (A) (A) (A)
                 (A) (A) (A) (A) (A) (A) (A) (A) (A) (A) (A) (A)
                 (A) (A) (A) (A) (A) (A) (A) (A) (A) (A) (A) (A)
                 (A) (A) (A) (A) (A) (A) (A) (A) (A) (A) (A) (A)
                 (A) (A) (A) (A) (A) (A) (A) (A) (A) (A) (A) (A)
                 (A) (A) (A) (A) (A) (A) (A) (A) (A) (A) (A) (A)
                 (A) (A) (A) (A) (A) (A) (A) (A) (A) (A) (A) (A)
                 (A) (A) (A) (A) (A) (A) (A) (A) (A) (A) (A) (A)
                 (A) (A) (A) (A) (A) (A) (A) (A) (A) (A) (A) (A)
                 (A) (A) (A) (A) (A) (A) (A) (A) (A) (A) (A) (A)
                 (A)
 The electronic state is 1-A.
 Alpha  occ. eigenvalues --  -89.22934 -24.78454 -19.20337 -19.20336 -14.48248
 Alpha  occ. eigenvalues --  -14.42172 -14.41816 -14.39009 -10.34125 -10.32478
 Alpha  occ. eigenvalues --  -10.31103 -10.30838 -10.29981 -10.29659  -8.20769
 Alpha  occ. eigenvalues --   -6.15724  -6.15327  -6.15288  -1.27512  -1.12169
 Alpha  occ. eigenvalues --   -1.10348  -1.03866  -1.03585  -0.97102  -0.93059
 Alpha  occ. eigenvalues --   -0.85046  -0.79161  -0.74730  -0.71995  -0.66036
 Alpha  occ. eigenvalues --   -0.65322  -0.60383  -0.59878  -0.55486  -0.54238
 Alpha  occ. eigenvalues --   -0.53201  -0.52245  -0.50711  -0.49335  -0.48263
 Alpha  occ. eigenvalues --   -0.48119  -0.47022  -0.44468  -0.44461  -0.42897
 Alpha  occ. eigenvalues --   -0.38398  -0.37805  -0.37305  -0.34312  -0.33433
 Alpha  occ. eigenvalues --   -0.32102  -0.32061  -0.30709  -0.29873  -0.29344
 Alpha virt. eigenvalues --   -0.08569  -0.05434   0.01041   0.01159   0.05905
 Alpha virt. eigenvalues --    0.07590   0.09480   0.10536   0.10736   0.11361
 Alpha virt. eigenvalues --    0.11976   0.13701   0.13893   0.17857   0.19365
 Alpha virt. eigenvalues --    0.20657   0.21837   0.25280   0.28953   0.30489
 Alpha virt. eigenvalues --    0.32611   0.33349   0.33952   0.38054   0.39486
 Alpha virt. eigenvalues --    0.40190   0.41251   0.45103   0.45576   0.46963
 Alpha virt. eigenvalues --    0.49484   0.50379   0.55667   0.56288   0.56356
 Alpha virt. eigenvalues --    0.59134   0.59139   0.60362   0.62609   0.65440
 Alpha virt. eigenvalues --    0.66533   0.66567   0.69683   0.71061   0.71970
 Alpha virt. eigenvalues --    0.74418   0.76987   0.77438   0.79307   0.79960
 Alpha virt. eigenvalues --    0.80395   0.82197   0.82830   0.82970   0.83435
 Alpha virt. eigenvalues --    0.84962   0.85274   0.86551   0.87564   0.88451
 Alpha virt. eigenvalues --    0.90870   0.91932   0.92217   0.94070   0.98064
 Alpha virt. eigenvalues --    0.99308   0.99369   1.03821   1.05231   1.06774
 Alpha virt. eigenvalues --    1.09486   1.12452   1.13205   1.16682   1.17583
 Alpha virt. eigenvalues --    1.18392   1.22050   1.26497   1.26865   1.27271
 Alpha virt. eigenvalues --    1.28371   1.30241   1.32150   1.35166   1.37260
 Alpha virt. eigenvalues --    1.37957   1.41183   1.42459   1.44633   1.45893
 Alpha virt. eigenvalues --    1.48645   1.52365   1.54530   1.56465   1.59509
 Alpha virt. eigenvalues --    1.62346   1.66325   1.70793   1.71822   1.77774
 Alpha virt. eigenvalues --    1.78563   1.78844   1.79434   1.80041   1.81477
 Alpha virt. eigenvalues --    1.82530   1.83166   1.84977   1.87098   1.87795
 Alpha virt. eigenvalues --    1.89819   1.92512   1.92806   1.94324   1.97177
 Alpha virt. eigenvalues --    1.98854   2.00951   2.03250   2.05489   2.11765
 Alpha virt. eigenvalues --    2.13396   2.15091   2.16444   2.17046   2.18722
 Alpha virt. eigenvalues --    2.20593   2.22309   2.23523   2.26085   2.26364
 Alpha virt. eigenvalues --    2.29158   2.29990   2.30182   2.39987   2.43251
 Alpha virt. eigenvalues --    2.47291   2.47797   2.50172   2.51488   2.59521
 Alpha virt. eigenvalues --    2.59672   2.63293   2.66405   2.68571   2.70023
 Alpha virt. eigenvalues --    2.74222   2.80993   2.82204   2.83831   2.89903
 Alpha virt. eigenvalues --    2.95725   2.98558   3.11055   3.23257   3.39076
 Alpha virt. eigenvalues --    3.79317   3.85714   3.95483   4.00096   4.01995
 Alpha virt. eigenvalues --    4.05533   4.13954   4.19068   4.29193   4.31732
 Alpha virt. eigenvalues --    4.34607   4.41759   4.62483   4.66659
          Condensed to atoms (all electrons):
               1          2          3          4          5          6
     1  F    9.154636   0.214612  -0.025708   0.002601   0.000379   0.000001
     2  S    0.214612  13.457837   0.174301  -0.017052  -0.002636  -0.000212
     3  C   -0.025708   0.174301   5.274853   0.312949  -0.047456   0.004621
     4  N    0.002601  -0.017052   0.312949   6.987429   0.382169  -0.068489
     5  C    0.000379  -0.002636  -0.047456   0.382169   4.673877   0.426057
     6  N    0.000001  -0.000212   0.004621  -0.068489   0.426057   6.829419
     7  C    0.000000   0.000001  -0.000474   0.003780  -0.097650   0.504621
     8  N    0.000000  -0.000012   0.000891   0.006891  -0.046634  -0.069045
     9  C    0.000000   0.000000  -0.000020  -0.000053   0.008197   0.004732
    10  C   -0.000005   0.001219  -0.027595  -0.077210   0.383146  -0.132152
    11  C   -0.000014   0.000127  -0.080868  -0.030734  -0.054970   0.007004
    12  N    0.000459  -0.017643   0.364244  -0.046553  -0.038707   0.000090
    13  O   -0.036910   0.462305  -0.051252   0.000519  -0.000215   0.000000
    14  O   -0.036910   0.462307  -0.051251   0.000519  -0.000215   0.000000
    15  H    0.000000  -0.000000   0.000005  -0.000066   0.005898  -0.033220
    16  H    0.000000   0.000000  -0.000001  -0.000003  -0.000173  -0.000120
    17  H    0.000000  -0.000000   0.000000   0.000003  -0.000006   0.000181
    18  H    0.000000   0.000000  -0.000001  -0.000003  -0.000173  -0.000120
    19  H    0.000000  -0.000141   0.006029  -0.000514   0.001405  -0.000139
               7          8          9         10         11         12
     1  F    0.000000   0.000000   0.000000  -0.000005  -0.000014   0.000459
     2  S    0.000001  -0.000012   0.000000   0.001219   0.000127  -0.017643
     3  C   -0.000474   0.000891  -0.000020  -0.027595  -0.080868   0.364244
     4  N    0.003780   0.006891  -0.000053  -0.077210  -0.030734  -0.046553
     5  C   -0.097650  -0.046634   0.008197   0.383146  -0.054970  -0.038707
     6  N    0.504621  -0.069045   0.004732  -0.132152   0.007004   0.000090
     7  C    4.727606   0.357440  -0.034743  -0.082036   0.004920  -0.000021
     8  N    0.357440   7.034984   0.245781   0.260008  -0.069010   0.005331
     9  C   -0.034743   0.245781   5.074093  -0.045075   0.000551  -0.000024
    10  C   -0.082036   0.260008  -0.045075   5.028219   0.411708   0.003272
    11  C    0.004920  -0.069010   0.000551   0.411708   4.905844   0.452380
    12  N   -0.000021   0.005331  -0.000024   0.003272   0.452380   6.750042
    13  O   -0.000000  -0.000000   0.000000   0.000009  -0.000069  -0.000928
    14  O   -0.000000  -0.000000   0.000000   0.000009  -0.000069  -0.000929
    15  H    0.383329  -0.050471   0.000543   0.002597  -0.000065   0.000003
    16  H    0.000810  -0.041316   0.379962  -0.001578   0.001687   0.000001
    17  H   -0.001474  -0.030909   0.383048   0.002843  -0.000015   0.000000
    18  H    0.000810  -0.041315   0.379963  -0.001578   0.001687   0.000001
    19  H   -0.000175  -0.002323   0.001984  -0.061832   0.386640  -0.045970
              13         14         15         16         17         18
     1  F   -0.036910  -0.036910   0.000000   0.000000   0.000000   0.000000
     2  S    0.462305   0.462307  -0.000000   0.000000  -0.000000   0.000000
     3  C   -0.051252  -0.051251   0.000005  -0.000001   0.000000  -0.000001
     4  N    0.000519   0.000519  -0.000066  -0.000003   0.000003  -0.000003
     5  C   -0.000215  -0.000215   0.005898  -0.000173  -0.000006  -0.000173
     6  N    0.000000   0.000000  -0.033220  -0.000120   0.000181  -0.000120
     7  C   -0.000000  -0.000000   0.383329   0.000810  -0.001474   0.000810
     8  N   -0.000000  -0.000000  -0.050471  -0.041316  -0.030909  -0.041315
     9  C    0.000000   0.000000   0.000543   0.379962   0.383048   0.379963
    10  C    0.000009   0.000009   0.002597  -0.001578   0.002843  -0.001578
    11  C   -0.000069  -0.000069  -0.000065   0.001687  -0.000015   0.001687
    12  N   -0.000928  -0.000929   0.000003   0.000001   0.000000   0.000001
    13  O    8.142627  -0.041798   0.000000  -0.000000   0.000000   0.000000
    14  O   -0.041798   8.142627   0.000000   0.000000   0.000000  -0.000000
    15  H    0.000000   0.000000   0.465073  -0.000076   0.003130  -0.000076
    16  H   -0.000000   0.000000  -0.000076   0.498867  -0.022721  -0.032612
    17  H    0.000000   0.000000   0.003130  -0.022721   0.474566  -0.022718
    18  H    0.000000  -0.000000  -0.000076  -0.032612  -0.022718   0.498862
    19  H    0.000002   0.000002  -0.000000   0.000326  -0.000032   0.000326
              19
     1  F    0.000000
     2  S   -0.000141
     3  C    0.006029
     4  N   -0.000514
     5  C    0.001405
     6  N   -0.000139
     7  C   -0.000175
     8  N   -0.002323
     9  C    0.001984
    10  C   -0.061832
    11  C    0.386640
    12  N   -0.045970
    13  O    0.000002
    14  O    0.000002
    15  H   -0.000000
    16  H    0.000326
    17  H   -0.000032
    18  H    0.000326
    19  H    0.502378
 Mulliken charges:
               1
     1  F   -0.273141
     2  S    1.264989
     3  C    0.146733
     4  N   -0.456183
     5  C    0.407708
     6  N   -0.473229
     7  C    0.233255
     8  N   -0.560290
     9  C   -0.398940
    10  C    0.336030
    11  C    0.063267
    12  N   -0.425050
    13  O   -0.474291
    14  O   -0.474293
    15  H    0.223397
    16  H    0.216948
    17  H    0.214105
    18  H    0.216949
    19  H    0.212036
 Sum of Mulliken charges =  -0.00000
 Mulliken charges with hydrogens summed into heavy atoms:
               1
     1  F   -0.273141
     2  S    1.264989
     3  C    0.146733
     4  N   -0.456183
     5  C    0.407708
     6  N   -0.473229
     7  C    0.456652
     8  N   -0.560290
     9  C    0.249063
    10  C    0.336030
    11  C    0.275302
    12  N   -0.425050
    13  O   -0.474291
    14  O   -0.474293
 APT charges:
               1
     1  F    0.007829
     2  S    0.073184
     3  C   -0.001552
     4  N   -0.404193
     5  C    0.012807
     6  N   -0.538480
     7  C   -0.163291
     8  N   -0.133427
     9  C   -1.536638
    10  C    0.082678
    11  C   -0.371765
    12  N   -0.410712
    13  O    0.003538
    14  O    0.003535
    15  H    0.992845
    16  H    0.407841
    17  H    0.887671
    18  H    0.407827
    19  H    0.680305
 Sum of APT charges =  -0.00000
 APT charges with hydrogens summed into heavy atoms:
               1
     1  F    0.007829
     2  S    0.073184
     3  C   -0.001552
     4  N   -0.404193
     5  C    0.012807
     6  N   -0.538480
     7  C    0.829554
     8  N   -0.133427
     9  C    0.166701
    10  C    0.082678
    11  C    0.308540
    12  N   -0.410712
    13  O    0.003538
    14  O    0.003535
 Electronic spatial extent (au):  <R**2>=           3312.2441
 Charge=             -0.0000 electrons
 Dipole moment (field-independent basis, Debye):
    X=             11.0866    Y=             -2.1685    Z=             -0.0000  Tot=             11.2967
 Quadrupole moment (field-independent basis, Debye-Ang):
   XX=            -67.9662   YY=            -88.4623   ZZ=            -88.2417
   XY=             -9.7242   XZ=              0.0004   YZ=             -0.0002
 Traceless Quadrupole moment (field-independent basis, Debye-Ang):
   XX=             13.5905   YY=             -6.9055   ZZ=             -6.6850
   XY=             -9.7242   XZ=              0.0004   YZ=             -0.0002
 Octapole moment (field-independent basis, Debye-Ang**2):
  XXX=            141.4948  YYY=            -15.6257  ZZZ=             -0.0009  XYY=              3.9484
  XXY=              8.5936  XXZ=             -0.0000  XZZ=              1.0961  YZZ=              4.4300
  YYZ=              0.0004  XYZ=              0.0009
 Hexadecapole moment (field-independent basis, Debye-Ang**3):
 XXXX=          -2796.1940 YYYY=           -646.5987 ZZZZ=           -194.1643 XXXY=            -50.4628
 XXXZ=              0.0081 YYYX=            -64.7547 YYYZ=             -0.0007 ZZZX=              0.0031
 ZZZY=             -0.0006 XXYY=           -608.4323 XXZZ=           -621.7746 YYZZ=           -136.9365
 XXYZ=             -0.0008 YYXZ=             -0.0002 ZZXY=            -23.0231
 N-N= 1.028546414991D+03 E-N=-4.639280687237D+03  KE= 1.091128047728D+03
  Exact polarizability:   0.000   0.000   0.000   0.000   0.000   0.000
 Approx polarizability: 226.039  15.979 192.958  -0.000   0.001 101.845
 R6APFD:  NTU= -4 IXU= 1 FactS= 1.050
 Calling FoFJK, ICntrl=    100147 FMM=F ISym2X=0 I1Cent= 0 IOpClX= 0 NMat=1 NMatS=1 NMatT=0.
 ***** Axes restored to original set *****
 -------------------------------------------------------------------
 Center     Atomic                   Forces (Hartrees/Bohr)
 Number     Number              X              Y              Z
 -------------------------------------------------------------------
      1        9          -0.014363493    0.003924789   -0.005646577
      2       16           0.026527945   -0.020468975    0.030492191
      3        6          -0.029772415    0.015009722   -0.022131559
      4        7          -0.004482209   -0.014911452    0.022732543
      5        6           0.025033064    0.012709969   -0.019834515
      6        7          -0.003692625    0.007046044   -0.010618574
      7        6           0.026444997   -0.007935302    0.011472462
      8        7          -0.019679115    0.002095980   -0.002757429
      9        6           0.002890465   -0.002241389    0.003337145
     10        6          -0.019570861   -0.001084025    0.002068656
     11        6           0.024905886   -0.001875308    0.002310888
     12        7           0.008325560    0.007432273   -0.011467805
     13        8          -0.006442889   -0.004463354   -0.009139814
     14        8          -0.006232664    0.010285063    0.000577820
     15        1          -0.000928400   -0.001137120    0.001749450
     16        1          -0.004667178   -0.000230254    0.001927631
     17        1           0.001155930   -0.000768335    0.001144556
     18        1          -0.004687322   -0.001586725    0.001030673
     19        1          -0.000764675   -0.001801604    0.002752259
 -------------------------------------------------------------------
 Cartesian Forces:  Max     0.030492191 RMS     0.012549356
 FormGI is forming the generalized inverse of G from B-inverse, IUseBI=4.

 GradGradGradGradGradGradGradGradGradGradGradGradGradGradGradGradGradGrad
 Berny optimization.
 Internal  Forces:  Max     0.036309642 RMS     0.008066143
 Search for a local minimum.
 Step number   1 out of a maximum of  103
 All quantities printed in internal units (Hartrees-Bohrs-Radians)
 Mixed Optimization -- RFO/linear search
 Second derivative matrix not updated -- analytic derivatives used.
 ITU=  0
     Eigenvalues ---   -0.00080   0.00057   0.00508   0.01094   0.01818
     Eigenvalues ---    0.02374   0.02507   0.02699   0.02912   0.03742
     Eigenvalues ---    0.04302   0.05396   0.06217   0.06373   0.11416
     Eigenvalues ---    0.12290   0.14327   0.14424   0.15073   0.15377
     Eigenvalues ---    0.16148   0.17035   0.17512   0.18761   0.19104
     Eigenvalues ---    0.19338   0.19837   0.20597   0.23313   0.25117
     Eigenvalues ---    0.26303   0.28064   0.30284   0.34731   0.34784
     Eigenvalues ---    0.35278   0.35837   0.36831   0.37211   0.37921
     Eigenvalues ---    0.38721   0.40906   0.42079   0.42778   0.46396
     Eigenvalues ---    0.47697   0.50770   0.55992   0.58486   0.65628
     Eigenvalues ---    0.65861
 RFO step:  Lambda=-1.86512877D-02 EMin=-8.02068806D-04
 Linear search not attempted -- first point.
 Iteration  1 RMS(Cart)=  0.09727636 RMS(Int)=  0.02849546
 Iteration  2 RMS(Cart)=  0.04851046 RMS(Int)=  0.00200002
 Iteration  3 RMS(Cart)=  0.00207065 RMS(Int)=  0.00032302
 Iteration  4 RMS(Cart)=  0.00000370 RMS(Int)=  0.00032301
 Iteration  5 RMS(Cart)=  0.00000000 RMS(Int)=  0.00032301
 Variable       Old X    -DE/DX   Delta X   Delta X   Delta X     New X
                                 (Linear)    (Quad)   (Total)
    R1        3.01456  -0.00146   0.00000  -0.00578  -0.00578   3.00878
    R2        3.37569   0.00426   0.00000   0.03421   0.03421   3.40990
    R3        2.74606  -0.01138   0.00000  -0.01866  -0.01866   2.72740
    R4        2.74606  -0.01138   0.00000  -0.02142  -0.02142   2.72464
    R5        2.54351  -0.01969   0.00000  -0.05817  -0.05805   2.48546
    R6        2.57002  -0.02557   0.00000  -0.05222  -0.05214   2.51789
    R7        2.54101  -0.00748   0.00000  -0.01396  -0.01392   2.52709
    R8        2.58144  -0.00158   0.00000   0.00483   0.00474   2.58619
    R9        2.62232   0.02080   0.00000   0.05034   0.05009   2.67241
   R10        2.48540  -0.00117   0.00000  -0.01240  -0.01227   2.47314
   R11        2.58417   0.00334   0.00000   0.00281   0.00298   2.58715
   R12        2.04708  -0.00084   0.00000   0.00054   0.00054   2.04762
   R13        2.72323   0.00837   0.00000   0.00828   0.00828   2.73152
   R14        2.58553  -0.00090   0.00000   0.00391   0.00389   2.58942
   R15        2.06536   0.00079   0.00000   0.00173   0.00173   2.06710
   R16        2.06538  -0.00180   0.00000  -0.00313  -0.00313   2.06226
   R17        2.06537   0.00079   0.00000   0.00171   0.00171   2.06708
   R18        2.60909   0.00611   0.00000   0.01621   0.01610   2.62519
   R19        2.54392  -0.01726   0.00000  -0.03261  -0.03265   2.51127
   R20        2.04611   0.00300   0.00000   0.00939   0.00939   2.05551
    A1        1.86283  -0.03631   0.00000  -0.15230  -0.15297   1.70985
    A2        1.82735   0.01340   0.00000   0.04082   0.03960   1.86696
    A3        1.82735   0.01340   0.00000   0.04160   0.04112   1.86848
    A4        1.90095  -0.00141   0.00000   0.01085   0.01009   1.91104
    A5        1.90094  -0.00141   0.00000   0.02130   0.02074   1.92168
    A6        2.12598   0.00645   0.00000   0.01053   0.00986   2.13584
    A7        1.99934   0.00631   0.00000   0.05664   0.05627   2.05561
    A8        2.02015  -0.01870   0.00000  -0.08106  -0.08138   1.93876
    A9        2.26370   0.01239   0.00000   0.02442   0.02428   2.28798
   A10        1.94160   0.00325   0.00000   0.01966   0.01988   1.96148
   A11        2.18164   0.01103   0.00000   0.03634   0.03649   2.21813
   A12        2.16129  -0.01011   0.00000  -0.02889  -0.02880   2.13249
   A13        1.94025  -0.00092   0.00000  -0.00745  -0.00769   1.93257
   A14        1.83423  -0.00962   0.00000  -0.02340  -0.02337   1.81087
   A15        1.94897   0.01977   0.00000   0.05538   0.05560   2.00457
   A16        2.18627  -0.00771   0.00000  -0.01120  -0.01131   2.17496
   A17        2.14795  -0.01206   0.00000  -0.04418  -0.04429   2.10366
   A18        2.19505   0.01037   0.00000   0.02868   0.02863   2.22367
   A19        1.88066  -0.01412   0.00000  -0.03900  -0.03891   1.84175
   A20        2.20748   0.00375   0.00000   0.01033   0.01028   2.21776
   A21        1.89337   0.00654   0.00000   0.02966   0.02940   1.92277
   A22        1.91338  -0.00245   0.00000  -0.01230  -0.01223   1.90115
   A23        1.89338   0.00654   0.00000   0.02971   0.02945   1.92282
   A24        1.91663  -0.00270   0.00000  -0.01349  -0.01342   1.90322
   A25        1.93006  -0.00501   0.00000  -0.01910  -0.01968   1.91039
   A26        1.91667  -0.00271   0.00000  -0.01351  -0.01343   1.90323
   A27        1.82067   0.00489   0.00000   0.01447   0.01435   1.83502
   A28        2.10222  -0.00836   0.00000  -0.02346  -0.02355   2.07866
   A29        2.36030   0.00348   0.00000   0.00899   0.00920   2.36950
   A30        2.05443   0.00266   0.00000   0.01257   0.01240   2.06682
   A31        2.17290   0.00027   0.00000  -0.00745  -0.00736   2.16554
   A32        2.05586  -0.00292   0.00000  -0.00512  -0.00504   2.05082
   A33        2.04314   0.00017   0.00000  -0.00428  -0.00426   2.03888
    D1        0.00005   0.00000   0.00000  -0.32206  -0.32213  -0.32208
    D2       -3.14152  -0.00000   0.00000  -0.28246  -0.28306   2.85860
    D3        1.96402  -0.00317   0.00000  -0.34530  -0.34472   1.61931
    D4       -1.17755  -0.00317   0.00000  -0.30570  -0.30565  -1.48320
    D5       -1.96391   0.00317   0.00000  -0.30461  -0.30432  -2.26823
    D6        1.17770   0.00317   0.00000  -0.26501  -0.26525   0.91245
    D7       -3.14157  -0.00000   0.00000   0.04228   0.04382  -3.09775
    D8        0.00000  -0.00000   0.00000  -0.00408  -0.00455  -0.00455
    D9       -3.14159   0.00000   0.00000  -0.05159  -0.05062   3.09097
   D10        0.00003  -0.00000   0.00000  -0.00478  -0.00476  -0.00473
   D11        3.14159   0.00000   0.00000   0.00662   0.00677  -3.13483
   D12       -0.00002   0.00000   0.00000   0.00784   0.00818   0.00816
   D13        3.14157   0.00000   0.00000   0.00213   0.00225  -3.13937
   D14       -0.00001   0.00000   0.00000   0.00103   0.00097   0.00096
   D15       -3.14158  -0.00000   0.00000  -0.00209  -0.00220   3.13941
   D16        0.00001  -0.00000   0.00000  -0.00316  -0.00324  -0.00323
   D17        0.00000  -0.00000   0.00000  -0.00102  -0.00099  -0.00099
   D18        3.14159   0.00000   0.00000  -0.00208  -0.00204   3.13955
   D19        0.00001  -0.00000   0.00000  -0.00064  -0.00061  -0.00059
   D20       -3.14155  -0.00000   0.00000  -0.00091  -0.00090   3.14074
   D21        3.14159   0.00000   0.00000  -0.00053  -0.00055   3.14104
   D22       -0.00001   0.00000   0.00000   0.00002   0.00000  -0.00001
   D23       -0.00003   0.00000   0.00000  -0.00027  -0.00027  -0.00030
   D24        3.14155   0.00000   0.00000   0.00028   0.00029  -3.14135
   D25        2.09286  -0.00078   0.00000  -0.00414  -0.00440   2.08847
   D26       -0.00001  -0.00000   0.00000   0.00161   0.00162   0.00161
   D27       -2.09293   0.00078   0.00000   0.00735   0.00762  -2.08531
   D28       -1.04871  -0.00078   0.00000  -0.00479  -0.00506  -1.05377
   D29       -3.14159  -0.00000   0.00000   0.00096   0.00095  -3.14064
   D30        1.04868   0.00078   0.00000   0.00670   0.00695   1.05564
   D31        0.00001  -0.00000   0.00000   0.00059   0.00058   0.00059
   D32       -3.14158  -0.00000   0.00000   0.00190   0.00189  -3.13969
   D33        3.14159   0.00000   0.00000   0.00115   0.00113  -3.14046
   D34        0.00000  -0.00000   0.00000   0.00245   0.00244   0.00244
   D35        0.00002  -0.00000   0.00000  -0.00632  -0.00647  -0.00645
   D36       -3.14157  -0.00000   0.00000  -0.00240  -0.00236   3.13925
   D37       -3.14158  -0.00000   0.00000  -0.00778  -0.00791   3.13369
   D38        0.00001  -0.00000   0.00000  -0.00386  -0.00381  -0.00380
   D39       -0.00004   0.00000   0.00000   0.00967   0.00995   0.00991
   D40        3.14156   0.00000   0.00000   0.00602   0.00612  -3.13551
         Item               Value     Threshold  Converged?
 Maximum Force            0.036310     0.000450     NO 
 RMS     Force            0.008066     0.000300     NO 
 Maximum Displacement     0.761453     0.001800     NO 
 RMS     Displacement     0.139232     0.001200     NO 
 Predicted change in Energy=-1.017027D-02
 GradGradGradGradGradGradGradGradGradGradGradGradGradGradGradGradGradGrad

                          Input orientation:                          
 ---------------------------------------------------------------------
 Center     Atomic      Atomic             Coordinates (Angstroms)
 Number     Number       Type             X           Y           Z
 ---------------------------------------------------------------------
      1          9           0        4.323738   -0.150199   -0.476362
      2         16           0        3.643466   -0.598385    0.891625
      3          6           0        1.923793   -0.329944    0.415516
      4          7           0        1.688531    0.444464   -0.621221
      5          6           0        0.380866    0.612025   -0.845391
      6          7           0       -0.197711    1.348327   -1.843411
      7          6           0       -1.481264    1.200652   -1.634961
      8          7           0       -1.803164    0.412725   -0.562639
      9          6           0       -3.125607    0.071179   -0.089525
     10          6           0       -0.606153    0.013865   -0.028143
     11          6           0       -0.208389   -0.777859    1.041814
     12          7           0        1.092459   -0.949345    1.252499
     13          8           0        4.024196    0.372554    1.889307
     14          8           0        3.899731   -2.008462    1.049280
     15          1           0       -2.258993    1.650377   -2.240744
     16          1           0       -3.269221   -1.012748   -0.121299
     17          1           0       -3.866183    0.547585   -0.734130
     18          1           0       -3.262991    0.427031    0.935662
     19          1           0       -0.897105   -1.273841    1.722123
 ---------------------------------------------------------------------
                    Distance matrix (angstroms):
                    1          2          3          4          5
     1  F    0.000000
     2  S    1.592178   0.000000
     3  C    2.566611   1.804444   0.000000
     4  N    2.705352   2.682911   1.315249   0.000000
     5  C    4.032792   3.889328   2.204045   1.337279   0.000000
     6  N    4.955593   5.101446   3.524219   2.422524   1.368552
     7  C    6.071672   5.990245   4.259295   3.412783   2.106521
     8  N    6.153313   5.727391   3.924099   3.492330   2.211257
     9  C    7.462667   6.872505   5.090422   4.857773   3.627561
    10  C    4.952943   4.390909   2.591459   2.408885   1.414177
    11  C    4.820684   3.858957   2.266953   2.803223   2.416721
    12  N    3.750835   2.600200   1.332409   2.410152   2.710237
    13  O    2.441185   1.443276   2.660312   3.429760   4.561773
    14  O    2.441415   1.441819   2.668972   3.700922   4.779031
    15  H    7.048934   7.050368   5.336017   4.433962   3.161335
    16  H    7.650039   6.998782   5.265148   5.191598   4.060460
    17  H    8.223635   7.768601   5.967878   5.556818   4.248995
    18  H    7.738571   6.982304   5.267475   5.190545   4.060058
    19  H    5.775216   4.665057   3.248943   3.889646   3.432467
                    6          7          8          9         10
     6  N    0.000000
     7  C    1.308727   0.000000
     8  N    2.256814   1.369060   0.000000
     9  C    3.644145   2.523479   1.445457   0.000000
    10  C    2.289718   2.180860   1.370260   2.520853   0.000000
    11  C    3.584034   3.563684   2.556378   3.242060   1.389191
    12  N    4.065525   4.425377   3.678939   4.542529   2.335187
    13  O    5.719249   6.589105   6.322324   7.424708   5.024480
    14  O    6.035290   6.816060   6.401831   7.414658   5.055060
    15  H    2.120847   1.083553   2.134385   2.805821   3.210242
    16  H    4.239637   3.222903   2.091908   1.093861   2.855617
    17  H    3.915275   2.631698   2.074523   1.091298   3.378028
    18  H    4.238864   3.221978   2.091938   1.093853   2.856294
    19  H    4.480842   4.211220   2.980870   3.171335   2.192321
                   11         12         13         14         15
    11  C    0.000000
    12  N    1.328909   0.000000
    13  O    4.467266   3.278418   0.000000
    14  O    4.288483   3.007292   2.527918   0.000000
    15  H    4.569080   5.494864   7.626835   7.882971   0.000000
    16  H    3.282788   4.573357   7.691263   7.331819   3.550330
    17  H    4.276709   5.547578   8.316919   8.367996   2.463554
    18  H    3.285366   4.578727   7.349524   7.566315   3.548822
    19  H    1.087727   2.069833   5.192088   4.899186   5.109805
                   16         17         18         19
    16  H    0.000000
    17  H    1.779485   0.000000
    18  H    1.786105   1.779488   0.000000
    19  H    3.015511   4.262182   3.018097   0.000000
 Stoichiometry    C6H5FN4O2S
 Framework group  C1[X(C6H5FN4O2S)]
 Deg. of freedom    51
 Full point group                 C1      NOp   1
 Largest Abelian subgroup         C1      NOp   1
 Largest concise Abelian subgroup C1      NOp   1
                         Standard orientation:                         
 ---------------------------------------------------------------------
 Center     Atomic      Atomic             Coordinates (Angstroms)
 Number     Number       Type             X           Y           Z
 ---------------------------------------------------------------------
      1          9           0       -2.808367    1.402376    0.408878
      2         16           0       -2.592360   -0.109130   -0.042474
      3          6           0       -0.789188   -0.133743    0.020617
      4          7           0       -0.159703    1.021048    0.011265
      5          6           0        1.169719    0.876362    0.006943
      6          7           0        2.108308    1.872344    0.004719
      7          6           0        3.246833    1.226993   -0.002206
      8          7           0        3.134832   -0.137476   -0.004045
      9          6           0        4.207314   -1.106530   -0.011835
     10          6           0        1.789004   -0.395000    0.002352
     11          6           0        0.993601   -1.533933    0.006238
     12          7           0       -0.326652   -1.383292    0.021703
     13          8           0       -3.027622   -0.205120   -1.415201
     14          8           0       -3.136171   -0.943603    1.000008
     15          1           0        4.222049    1.699247   -0.006561
     16          1           0        4.151492   -1.737985    0.879613
     17          1           0        5.162034   -0.577914   -0.014593
     18          1           0        4.143379   -1.732680   -0.906465
     19          1           0        1.383278   -2.549450    0.001080
 ---------------------------------------------------------------------
 Rotational constants (GHZ):           1.7783590           0.3569941           0.3170383
 Standard basis: 6-31G(d) (6D, 7F)
 There are   224 symmetry adapted cartesian basis functions of A   symmetry.
 There are   224 symmetry adapted basis functions of A   symmetry.
   224 basis functions,   436 primitive gaussians,   224 cartesian basis functions
    55 alpha electrons       55 beta electrons
       nuclear repulsion energy      1032.5219094232 Hartrees.
 NAtoms=   19 NActive=   19 NUniq=   19 SFac= 1.00D+00 NAtFMM=   60 NAOKFM=F Big=F
 Integral buffers will be    131072 words long.
 Raffenetti 2 integral format.
 Two-electron integral symmetry is turned on.
 R6APFD:  NTU= -4 IXU= 1 FactS= 1.050
 Nuclear repulsion after empirical dispersion term =     1032.5058310958 Hartrees.
 One-electron integrals computed using PRISM.
 NBasis=   224 RedAO= T EigKep=  8.07D-04  NBF=   224
 NBsUse=   224 1.00D-06 EigRej= -1.00D+00 NBFU=   224
 Initial guess from the checkpoint file:  "BWRLFZKXJHLHOU-UHFFFAOYSA-N_conf_0_0.chk"
 B after Tr=     0.000000    0.000000    0.000000
         Rot=    0.998724   -0.050239    0.001077    0.004951 Ang=  -5.79 deg.
 ExpMin= 1.17D-01 ExpMax= 2.19D+04 ExpMxC= 3.30D+03 IAcc=2 IRadAn=         4 AccDes= 0.00D+00
 Harris functional with IExCor= 3731 and IRadAn=       4 diagonalized for initial guess.
 HarFok:  IExCor= 3731 AccDes= 0.00D+00 IRadAn=         4 IDoV= 1 UseB2=F ITyADJ=14
 ICtDFT=  3500011 ScaDFX=  1.000000  1.000000  1.000000  1.000000
 FoFCou: FMM=F IPFlag=           0 FMFlag=      100000 FMFlg1=           0
         NFxFlg=           0 DoJE=T BraDBF=F KetDBF=T FulRan=T
         wScrn=  0.000000 ICntrl=       500 IOpCl=  0 I1Cent=   200000004 NGrid=           0
         NMat0=    1 NMatS0=      1 NMatT0=    0 NMatD0=    1 NMtDS0=    0 NMtDT0=    0
 Petite list used in FoFCou.
 Keep R1 ints in memory in canonical form, NReq=323229189.
 Requested convergence on RMS density matrix=1.00D-08 within  32 cycles.
 Requested convergence on MAX density matrix=1.00D-06.
 Requested convergence on             energy=1.00D-06.
 No special actions if energy rises.
 Integral accuracy reduced to 1.0D-05 until final iterations.
 Initial convergence to 1.0D-05 achieved.  Increase integral accuracy.
 SCF Done:  E(RAPFD) =  -1098.42365830     A.U. after   14 cycles
            NFock= 14  Conv=0.98D-08     -V/T= 2.0065
 QCSCF skips out because SCF is already converged.
 R6APFD:  NTU= -4 IXU= 1 FactS= 1.050
 Calling FoFJK, ICntrl=      2127 FMM=F ISym2X=0 I1Cent= 0 IOpClX= 0 NMat=1 NMatS=1 NMatT=0.
 ***** Axes restored to original set *****
 -------------------------------------------------------------------
 Center     Atomic                   Forces (Hartrees/Bohr)
 Number     Number              X              Y              Z
 -------------------------------------------------------------------
      1        9           0.002889658    0.000426593   -0.002256149
      2       16          -0.001070712   -0.000321919    0.001954178
      3        6          -0.000023071   -0.001300009    0.000466027
      4        7          -0.001861392    0.001628197   -0.001298460
      5        6           0.003375510    0.001385314   -0.002146741
      6        7          -0.000121059    0.000708012   -0.000945989
      7        6           0.001742283   -0.000609631    0.000849872
      8        7          -0.001791768    0.000394851   -0.000454590
      9        6           0.000983570   -0.000315537    0.000422737
     10        6          -0.002143083   -0.001033764    0.001311730
     11        6          -0.000348176   -0.000171428   -0.000511298
     12        7          -0.001384083   -0.000786634    0.002359745
     13        8           0.000941918    0.000469337    0.000263802
     14        8           0.000383085   -0.000180602   -0.000432751
     15        1          -0.000197539   -0.000043199    0.000066423
     16        1          -0.000564159    0.000003764    0.000106448
     17        1          -0.000004590   -0.000045558    0.000060803
     18        1          -0.000573943   -0.000097593    0.000027775
     19        1          -0.000232448   -0.000110194    0.000156437
 -------------------------------------------------------------------
 Cartesian Forces:  Max     0.003375510 RMS     0.001146568

 GradGradGradGradGradGradGradGradGradGradGradGradGradGradGradGradGradGrad
 Berny optimization.
 Using GEDIIS/GDIIS optimizer.
 FormGI is forming the generalized inverse of G from B-inverse, IUseBI=4.
 Internal  Forces:  Max     0.003675405 RMS     0.000912422
 Search for a local minimum.
 Step number   2 out of a maximum of  103
 All quantities printed in internal units (Hartrees-Bohrs-Radians)
 Mixed Optimization -- En-DIIS/RFO-DIIS
 Update second derivatives using D2CorX and points    1    2
 DE= -9.40D-03 DEPred=-1.02D-02 R= 9.24D-01
 TightC=F SS=  1.41D+00  RLast= 7.93D-01 DXNew= 5.0454D-01 2.3791D+00
 Trust test= 9.24D-01 RLast= 7.93D-01 DXMaxT set to 5.05D-01
 ITU=  1  0
 Use linear search instead of GDIIS.
     Eigenvalues ---   -0.00084   0.00057   0.00508   0.01094   0.01817
     Eigenvalues ---    0.02373   0.02506   0.02698   0.02910   0.03741
     Eigenvalues ---    0.04299   0.05393   0.06217   0.06370   0.11414
     Eigenvalues ---    0.12300   0.14281   0.14404   0.15072   0.15596
     Eigenvalues ---    0.16074   0.17057   0.17422   0.18760   0.19312
     Eigenvalues ---    0.19527   0.20290   0.20804   0.23283   0.24962
     Eigenvalues ---    0.26244   0.27524   0.30625   0.34737   0.34784
     Eigenvalues ---    0.35289   0.35866   0.36712   0.37203   0.37904
     Eigenvalues ---    0.38841   0.40815   0.42271   0.43460   0.46517
     Eigenvalues ---    0.47389   0.50811   0.56067   0.58659   0.65622
     Eigenvalues ---    0.65962
 RFO step:  Lambda=-8.58602339D-04 EMin=-8.40831214D-04
 I=     1 Eig=   -8.41D-04 Dot1=  6.32D-05
 I=     1 Stepn=  6.00D-01 RXN=   6.00D-01 EDone=F
 Mixed    1 eigenvectors in step.  Raw Step.Grad=  6.32D-05.
 RFO eigenvector is Hessian eigenvector with negative curvature.
 Taking step of  6.00D-01 in eigenvector direction(s).  Step.Grad= -8.18D-06.
 Quartic linear search produced a step of -0.02612.
 Iteration  1 RMS(Cart)=  0.08578750 RMS(Int)=  0.01176063
 Iteration  2 RMS(Cart)=  0.01845272 RMS(Int)=  0.00026792
 Iteration  3 RMS(Cart)=  0.00031735 RMS(Int)=  0.00003374
 Iteration  4 RMS(Cart)=  0.00000009 RMS(Int)=  0.00003374
 Variable       Old X    -DE/DX   Delta X   Delta X   Delta X     New X
                                 (Linear)    (Quad)   (Total)
    R1        3.00878   0.00329   0.00015  -0.00012   0.00003   3.00881
    R2        3.40990   0.00281  -0.00089  -0.00085  -0.00174   3.40816
    R3        2.72740   0.00075   0.00049   0.00147   0.00196   2.72936
    R4        2.72464   0.00020   0.00056  -0.00072  -0.00016   2.72448
    R5        2.48546   0.00247   0.00152   0.00105   0.00258   2.48804
    R6        2.51789   0.00285   0.00136   0.00103   0.00241   2.52030
    R7        2.52709  -0.00094   0.00036   0.00034   0.00070   2.52780
    R8        2.58619   0.00012  -0.00012  -0.00010  -0.00022   2.58597
    R9        2.67241   0.00318  -0.00131  -0.00117  -0.00250   2.66991
   R10        2.47314   0.00022   0.00032   0.00024   0.00056   2.47369
   R11        2.58715   0.00035  -0.00008  -0.00007  -0.00015   2.58700
   R12        2.04762   0.00009  -0.00001  -0.00002  -0.00003   2.04759
   R13        2.73152   0.00046  -0.00022  -0.00018  -0.00040   2.73112
   R14        2.58942   0.00026  -0.00010  -0.00009  -0.00019   2.58922
   R15        2.06710   0.00007  -0.00005  -0.00003  -0.00008   2.06702
   R16        2.06226  -0.00005   0.00008   0.00006   0.00014   2.06240
   R17        2.06708   0.00007  -0.00004  -0.00004  -0.00009   2.06699
   R18        2.62519   0.00050  -0.00042  -0.00035  -0.00079   2.62440
   R19        2.51127   0.00100   0.00085   0.00058   0.00144   2.51271
   R20        2.05551   0.00030  -0.00025  -0.00020  -0.00044   2.05506
    A1        1.70985   0.00368   0.00400   0.00255   0.00656   1.71641
    A2        1.86696  -0.00153  -0.00103  -0.00126  -0.00225   1.86471
    A3        1.86848  -0.00172  -0.00107  -0.00002  -0.00109   1.86738
    A4        1.91104   0.00112  -0.00026  -0.00464  -0.00488   1.90616
    A5        1.92168  -0.00020  -0.00054   0.00417   0.00364   1.92532
    A6        2.13584  -0.00054  -0.00026  -0.00021  -0.00045   2.13539
    A7        2.05561  -0.00047  -0.00147  -0.00141  -0.00306   2.05255
    A8        1.93876   0.00121   0.00213   0.00084   0.00278   1.94154
    A9        2.28798  -0.00075  -0.00063  -0.00077  -0.00152   2.28646
   A10        1.96148   0.00070  -0.00052  -0.00028  -0.00075   1.96073
   A11        2.21813   0.00049  -0.00095  -0.00075  -0.00171   2.21642
   A12        2.13249  -0.00020   0.00075   0.00058   0.00133   2.13382
   A13        1.93257  -0.00028   0.00020   0.00017   0.00038   1.93294
   A14        1.81087  -0.00055   0.00061   0.00048   0.00109   1.81196
   A15        2.00457   0.00156  -0.00145  -0.00118  -0.00264   2.00193
   A16        2.17496  -0.00058   0.00030   0.00027   0.00057   2.17553
   A17        2.10366  -0.00098   0.00116   0.00091   0.00207   2.10573
   A18        2.22367   0.00065  -0.00075  -0.00059  -0.00133   2.22234
   A19        1.84175  -0.00073   0.00102   0.00078   0.00179   1.84354
   A20        2.21776   0.00008  -0.00027  -0.00019  -0.00046   2.21730
   A21        1.92277   0.00072  -0.00077  -0.00063  -0.00139   1.92138
   A22        1.90115  -0.00025   0.00032   0.00025   0.00057   1.90172
   A23        1.92282   0.00073  -0.00077  -0.00059  -0.00136   1.92147
   A24        1.90322  -0.00036   0.00035   0.00028   0.00063   1.90385
   A25        1.91039  -0.00051   0.00051   0.00042   0.00095   1.91133
   A26        1.90323  -0.00036   0.00035   0.00029   0.00064   1.90387
   A27        1.83502   0.00000  -0.00037  -0.00026  -0.00062   1.83440
   A28        2.07866   0.00010   0.00062   0.00041   0.00100   2.07967
   A29        2.36950  -0.00010  -0.00024  -0.00015  -0.00038   2.36912
   A30        2.06682   0.00043  -0.00032  -0.00029  -0.00062   2.06620
   A31        2.16554  -0.00028   0.00019   0.00014   0.00033   2.16587
   A32        2.05082  -0.00016   0.00013   0.00014   0.00027   2.05109
   A33        2.03888  -0.00029   0.00011   0.00026   0.00043   2.03931
    D1       -0.32208  -0.00023   0.00841  -0.25766  -0.24924  -0.57131
    D2        2.85860  -0.00021   0.00739  -0.22635  -0.21893   2.63968
    D3        1.61931   0.00000   0.00900  -0.25927  -0.25029   1.36902
    D4       -1.48320   0.00002   0.00798  -0.22796  -0.21998  -1.70318
    D5       -2.26823   0.00008   0.00795  -0.26002  -0.25209  -2.52032
    D6        0.91245   0.00010   0.00693  -0.22871  -0.22178   0.69067
    D7       -3.09775  -0.00023  -0.00114   0.03528   0.03405  -3.06370
    D8       -0.00455  -0.00021   0.00012  -0.00345  -0.00330  -0.00786
    D9        3.09097   0.00029   0.00132  -0.04080  -0.03954   3.05144
   D10       -0.00473   0.00030   0.00012  -0.00403  -0.00391  -0.00864
   D11       -3.13483   0.00002  -0.00018   0.00541   0.00522  -3.12961
   D12        0.00816   0.00002  -0.00021   0.00652   0.00629   0.01445
   D13       -3.13937  -0.00001  -0.00006   0.00179   0.00173  -3.13764
   D14        0.00096  -0.00000  -0.00003   0.00078   0.00076   0.00173
   D15        3.13941   0.00001   0.00006  -0.00176  -0.00170   3.13771
   D16       -0.00323   0.00004   0.00008  -0.00267  -0.00258  -0.00581
   D17       -0.00099   0.00000   0.00003  -0.00081  -0.00078  -0.00178
   D18        3.13955   0.00004   0.00005  -0.00172  -0.00167   3.13788
   D19       -0.00059   0.00000   0.00002  -0.00048  -0.00047  -0.00106
   D20        3.14074  -0.00000   0.00002  -0.00070  -0.00068   3.14006
   D21        3.14104  -0.00001   0.00001  -0.00043  -0.00041   3.14063
   D22       -0.00001   0.00000  -0.00000  -0.00001  -0.00001  -0.00002
   D23       -0.00030  -0.00000   0.00001  -0.00021  -0.00021  -0.00051
   D24       -3.14135   0.00000  -0.00001   0.00020   0.00020  -3.14116
   D25        2.08847  -0.00015   0.00011   0.00138   0.00150   2.08997
   D26        0.00161   0.00001  -0.00004   0.00126   0.00122   0.00282
   D27       -2.08531   0.00016  -0.00020   0.00110   0.00090  -2.08441
   D28       -1.05377  -0.00016   0.00013   0.00087   0.00101  -1.05276
   D29       -3.14064  -0.00000  -0.00002   0.00075   0.00073  -3.13991
   D30        1.05564   0.00015  -0.00018   0.00060   0.00041   1.05605
   D31        0.00059  -0.00000  -0.00002   0.00048   0.00047   0.00106
   D32       -3.13969  -0.00004  -0.00005   0.00162   0.00157  -3.13811
   D33       -3.14046   0.00000  -0.00003   0.00090   0.00087  -3.13960
   D34        0.00244  -0.00004  -0.00006   0.00204   0.00197   0.00442
   D35       -0.00645   0.00005   0.00017  -0.00513  -0.00496  -0.01140
   D36        3.13925  -0.00007   0.00006  -0.00178  -0.00172   3.13753
   D37        3.13369   0.00010   0.00021  -0.00639  -0.00618   3.12751
   D38       -0.00380  -0.00002   0.00010  -0.00304  -0.00294  -0.00674
   D39        0.00991  -0.00020  -0.00026   0.00805   0.00777   0.01769
   D40       -3.13551  -0.00009  -0.00016   0.00492   0.00475  -3.13075
         Item               Value     Threshold  Converged?
 Maximum Force            0.003675     0.000450     NO 
 RMS     Force            0.000912     0.000300     NO 
 Maximum Displacement     0.507019     0.001800     NO 
 RMS     Displacement     0.102059     0.001200     NO 
 Predicted change in Energy=-1.835854D-04
 GradGradGradGradGradGradGradGradGradGradGradGradGradGradGradGradGradGrad

                          Input orientation:                          
 ---------------------------------------------------------------------
 Center     Atomic      Atomic             Coordinates (Angstroms)
 Number     Number       Type             X           Y           Z
 ---------------------------------------------------------------------
      1          9           0        4.324467   -0.409527   -0.529522
      2         16           0        3.642994   -0.574210    0.900010
      3          6           0        1.925789   -0.343175    0.399492
      4          7           0        1.687511    0.476869   -0.602619
      5          6           0        0.378725    0.643471   -0.823154
      6          7           0       -0.201149    1.415919   -1.792528
      7          6           0       -1.484998    1.254000   -1.594901
      8          7           0       -1.803373    0.421404   -0.555899
      9          6           0       -3.124873    0.054275   -0.100277
     10          6           0       -0.605883    0.007415   -0.034396
     11          6           0       -0.207604   -0.825923    1.002720
     12          7           0        1.094294   -1.004185    1.205964
     13          8           0        4.062221    0.555668    1.696045
     14          8           0        3.863661   -1.936390    1.317583
     15          1           0       -2.263148    1.724142   -2.184394
     16          1           0       -3.260827   -1.028460   -0.175417
     17          1           0       -3.866994    0.551429   -0.727329
     18          1           0       -3.265308    0.368929    0.937837
     19          1           0       -0.895505   -1.351649    1.660782
 ---------------------------------------------------------------------
                    Distance matrix (angstroms):
                    1          2          3          4          5
     1  F    0.000000
     2  S    1.592196   0.000000
     3  C    2.573155   1.803522   0.000000
     4  N    2.782908   2.680779   1.316615   0.000000
     5  C    4.094374   3.886836   2.204935   1.337652   0.000000
     6  N    5.040698   5.097825   3.524660   2.421722   1.368436
     7  C    6.136142   5.988592   4.261694   3.413704   2.107559
     8  N    6.183976   5.724844   3.924793   3.491638   2.209591
     9  C    7.476097   6.870196   5.090866   4.856951   3.625590
    10  C    4.972659   4.389119   2.592399   2.408926   1.412856
    11  C    4.802167   3.860183   2.268985   2.804611   2.415930
    12  N    3.714774   2.602760   1.333685   2.411721   2.710005
    13  O    2.439984   1.444315   2.655807   3.305951   4.463431
    14  O    2.440379   1.441734   2.671437   3.774470   4.835620
    15  H    7.119538   7.048297   5.338301   4.434570   3.162329
    16  H    7.618736   7.001830   5.263185   5.189852   4.057247
    17  H    8.250005   7.766287   5.968783   5.556405   4.247798
    18  H    7.769416   6.972488   5.267295   5.187974   4.056531
    19  H    5.738739   4.667029   3.250780   3.890814   3.431341
                    6          7          8          9         10
     6  N    0.000000
     7  C    1.309023   0.000000
     8  N    2.255090   1.368979   0.000000
     9  C    3.642245   2.522386   1.445247   0.000000
    10  C    2.288825   2.182200   1.370159   2.520287   0.000000
    11  C    3.583198   3.564471   2.555700   3.240650   1.388772
    12  N    4.065222   4.426849   3.678715   4.541803   2.335044
    13  O    5.575527   6.487652   6.284463   7.425125   5.008613
    14  O    6.118289   6.875268   6.417508   7.403559   5.057970
    15  H    2.121415   1.083537   2.135536   2.806166   3.211880
    16  H    4.236940   3.221510   2.090704   1.093821   2.853357
    17  H    3.914129   2.630626   2.074807   1.091375   3.378010
    18  H    4.235582   3.219879   2.090755   1.093806   2.854553
    19  H    4.479610   4.211459   2.980204   3.169864   2.191931
                   11         12         13         14         15
    11  C    0.000000
    12  N    1.329670   0.000000
    13  O    4.541023   3.388497   0.000000
    14  O    4.231722   2.924186   2.528441   0.000000
    15  H    4.570098   5.496428   7.512219   7.949915   0.000000
    16  H    3.278902   4.569013   7.722620   7.335647   3.550799
    17  H    4.275664   5.547246   8.291273   8.374601   2.463862
    18  H    3.283510   4.578588   7.369019   7.502061   3.548134
    19  H    1.087493   2.070480   5.312075   4.807220   5.110413
                   16         17         18         19
    16  H    0.000000
    17  H    1.779915   0.000000
    18  H    1.786631   1.779918   0.000000
    19  H    3.011781   4.260813   3.016456   0.000000
 Stoichiometry    C6H5FN4O2S
 Framework group  C1[X(C6H5FN4O2S)]
 Deg. of freedom    51
 Full point group                 C1      NOp   1
 Largest Abelian subgroup         C1      NOp   1
 Largest concise Abelian subgroup C1      NOp   1
                         Standard orientation:                         
 ---------------------------------------------------------------------
 Center     Atomic      Atomic             Coordinates (Angstroms)
 Number     Number       Type             X           Y           Z
 ---------------------------------------------------------------------
      1          9           0       -2.844834    1.270412    0.699844
      2         16           0       -2.589405   -0.097769   -0.073411
      3          6           0       -0.789606   -0.129298    0.038047
      4          7           0       -0.157054    1.025290    0.021370
      5          6           0        1.172296    0.876713    0.013134
      6          7           0        2.111982    1.871494    0.008963
      7          6           0        3.250657    1.225897   -0.003894
      8          7           0        3.134915   -0.138176   -0.007294
      9          6           0        4.205828   -1.108575   -0.021684
     10          6           0        1.788983   -0.394422    0.004569
     11          6           0        0.993208   -1.532569    0.011704
     12          7           0       -0.327420   -1.380336    0.039764
     13          8           0       -2.976812    0.119692   -1.447700
     14          8           0       -3.159202   -1.149426    0.731540
     15          1           0        4.226146    1.697501   -0.011958
     16          1           0        4.151222   -1.741534    0.868724
     17          1           0        5.161645   -0.581805   -0.026916
     18          1           0        4.136091   -1.731867   -0.917817
     19          1           0        1.381839   -2.548207    0.002341
 ---------------------------------------------------------------------
 Rotational constants (GHZ):           1.7787669           0.3565904           0.3168654
 Standard basis: 6-31G(d) (6D, 7F)
 There are   224 symmetry adapted cartesian basis functions of A   symmetry.
 There are   224 symmetry adapted basis functions of A   symmetry.
   224 basis functions,   436 primitive gaussians,   224 cartesian basis functions
    55 alpha electrons       55 beta electrons
       nuclear repulsion energy      1032.2754415807 Hartrees.
 NAtoms=   19 NActive=   19 NUniq=   19 SFac= 1.00D+00 NAtFMM=   60 NAOKFM=F Big=F
 Integral buffers will be    131072 words long.
 Raffenetti 2 integral format.
 Two-electron integral symmetry is turned on.
 R6APFD:  NTU= -4 IXU= 1 FactS= 1.050
 Nuclear repulsion after empirical dispersion term =     1032.2593562429 Hartrees.
 One-electron integrals computed using PRISM.
 NBasis=   224 RedAO= T EigKep=  8.07D-04  NBF=   224
 NBsUse=   224 1.00D-06 EigRej= -1.00D+00 NBFU=   224
 Initial guess from the checkpoint file:  "BWRLFZKXJHLHOU-UHFFFAOYSA-N_conf_0_0.chk"
 B after Tr=     0.000000   -0.000000   -0.000000
         Rot=    0.999235   -0.039099    0.001237   -0.000137 Ang=  -4.48 deg.
 ExpMin= 1.17D-01 ExpMax= 2.19D+04 ExpMxC= 3.30D+03 IAcc=2 IRadAn=         4 AccDes= 0.00D+00
 Harris functional with IExCor= 3731 and IRadAn=       4 diagonalized for initial guess.
 HarFok:  IExCor= 3731 AccDes= 0.00D+00 IRadAn=         4 IDoV= 1 UseB2=F ITyADJ=14
 ICtDFT=  3500011 ScaDFX=  1.000000  1.000000  1.000000  1.000000
 FoFCou: FMM=F IPFlag=           0 FMFlag=      100000 FMFlg1=           0
         NFxFlg=           0 DoJE=T BraDBF=F KetDBF=T FulRan=T
         wScrn=  0.000000 ICntrl=       500 IOpCl=  0 I1Cent=   200000004 NGrid=           0
         NMat0=    1 NMatS0=      1 NMatT0=    0 NMatD0=    1 NMtDS0=    0 NMtDT0=    0
 Petite list used in FoFCou.
 Keep R1 ints in memory in canonical form, NReq=323229189.
 Requested convergence on RMS density matrix=1.00D-08 within  32 cycles.
 Requested convergence on MAX density matrix=1.00D-06.
 Requested convergence on             energy=1.00D-06.
 No special actions if energy rises.
 Integral accuracy reduced to 1.0D-05 until final iterations.
 Initial convergence to 1.0D-05 achieved.  Increase integral accuracy.
 SCF Done:  E(RAPFD) =  -1098.42358358     A.U. after   13 cycles
            NFock= 13  Conv=0.65D-08     -V/T= 2.0065
 QCSCF skips out because SCF is already converged.
 R6APFD:  NTU= -4 IXU= 1 FactS= 1.050
 Calling FoFJK, ICntrl=      2127 FMM=F ISym2X=0 I1Cent= 0 IOpClX= 0 NMat=1 NMatS=1 NMatT=0.
 ***** Axes restored to original set *****
 -------------------------------------------------------------------
 Center     Atomic                   Forces (Hartrees/Bohr)
 Number     Number              X              Y              Z
 -------------------------------------------------------------------
      1        9           0.002234530    0.000287401   -0.003858830
      2       16           0.000650414    0.000291497    0.004303410
      3        6          -0.002267975   -0.001846099    0.001638554
      4        7          -0.001357439    0.000830478   -0.000266740
      5        6           0.005262102    0.001993928   -0.003240434
      6        7          -0.000502449    0.001176115   -0.001398625
      7        6           0.003137689   -0.000920002    0.001217402
      8        7          -0.002575265    0.000530001   -0.000400234
      9        6           0.001082282   -0.000430473    0.000560469
     10        6          -0.003158398   -0.001383333    0.001618076
     11        6           0.000408260   -0.000475155   -0.001158236
     12        7          -0.001670246    0.000278700    0.001850643
[...]
    18  H    0.000222
    19  H    0.488746
 Mulliken charges:
               1
     1  F   -0.293888
     2  S    1.261987
     3  C    0.168975
     4  N   -0.458715
     5  C    0.427367
     6  N   -0.460076
     7  C    0.199243
     8  N   -0.547701
     9  C   -0.397552
    10  C    0.340406
    11  C   -0.027538
    12  N   -0.362828
    13  O   -0.460219
    14  O   -0.453773
    15  H    0.202266
    16  H    0.216449
    17  H    0.214402
    18  H    0.216567
    19  H    0.214631
 Sum of Mulliken charges =  -0.00000
 Mulliken charges with hydrogens summed into heavy atoms:
               1
     1  F   -0.293888
     2  S    1.261987
     3  C    0.168975
     4  N   -0.458715
     5  C    0.427367
     6  N   -0.460076
     7  C    0.401508
     8  N   -0.547701
     9  C    0.249864
    10  C    0.340406
    11  C    0.187092
    12  N   -0.362828
    13  O   -0.460219
    14  O   -0.453773
 Electronic spatial extent (au):  <R**2>=           3291.6155
 Charge=              0.0000 electrons
 Dipole moment (field-independent basis, Debye):
    X=              8.9845    Y=             -2.5922    Z=              0.5852  Tot=              9.3692
 Quadrupole moment (field-independent basis, Debye-Ang):
   XX=            -70.7086   YY=            -87.4533   ZZ=            -87.7269
   XY=             -9.0838   XZ=             -1.9610   YZ=              1.6610
 Traceless Quadrupole moment (field-independent basis, Debye-Ang):
   XX=             11.2543   YY=             -5.4904   ZZ=             -5.7639
   XY=             -9.0838   XZ=             -1.9610   YZ=              1.6610
 Octapole moment (field-independent basis, Debye-Ang**2):
  XXX=            120.5520  YYY=            -13.9921  ZZZ=              7.8424  XYY=              4.1266
  XXY=             -3.4013  XXZ=              8.2097  XZZ=             -6.3699  YZZ=             -0.6386
  YYZ=             -0.1035  XYZ=             -4.9920
 Hexadecapole moment (field-independent basis, Debye-Ang**3):
 XXXX=          -2816.2028 YYYY=           -641.8048 ZZZZ=           -183.7376 XXXY=            -74.8438
 XXXZ=            -32.0969 YYYX=            -65.8330 YYYZ=              6.1719 ZZZX=            -22.2422
 ZZZY=              6.1969 XXYY=           -629.6053 XXZZ=           -604.3791 YYZZ=           -138.5130
 XXYZ=             17.3253 YYXZ=              0.2442 ZZXY=             -7.7621
 N-N= 1.030972048648D+03 E-N=-4.643971362555D+03  KE= 1.091275239546D+03
 Evaluate density.
 Using the total density.
 Monte-Carlo method of calculating molar volume:
 based on  0.001 e/bohr**3 density envelope.
 Number of points per bohr**3 =   20 CutOff= 1.00D-04
 Using the CI density.
 There are       413 points.  Will hold       413 in memory.
 LenV=   805161804 MDV=   805306368.
 Box volume = 8852.240 fraction occupied=0.172
 Integrated density= 4.5200035746580699D+02 error= 3.4200035746580699D+02
 Molar volume = 1521.814 bohr**3/mol (135.805 cm**3/mol)
 Recommended a0 for SCRF calculation =  4.66 angstrom (  8.80 bohr)
 ******************************Gaussian NBO Version 3.1******************************
             N A T U R A L   A T O M I C   O R B I T A L   A N D
          N A T U R A L   B O N D   O R B I T A L   A N A L Y S I S
 ******************************Gaussian NBO Version 3.1******************************
       /RESON  / : Allow strongly delocalized NBO set

 Analyzing the CI density

 Job title: BWRLFZKXJHLHOU-UHFFFAOYSA-N_conf_0                              

 Storage needed:    151854 in NPA ( 805304373 available)


 NATURAL POPULATIONS:  Natural atomic orbital occupancies 
                                                          
   NAO  Atom  No  lang   Type(AO)    Occupancy
 --------------------------------------------
     1    F    1  S      Cor( 1S)     1.99997
     2    F    1  S      Val( 2S)     1.92687
     3    F    1  S      Ryd( 3S)     0.00236
     4    F    1  S      Ryd( 4S)     0.00012
     5    F    1  px     Val( 2p)     1.94228
     6    F    1  px     Ryd( 3p)     0.00018
     7    F    1  py     Val( 2p)     1.79324
     8    F    1  py     Ryd( 3p)     0.00033
     9    F    1  pz     Val( 2p)     1.82181
    10    F    1  pz     Ryd( 3p)     0.00027
    11    F    1  dxy    Ryd( 3d)     0.00123
    12    F    1  dxz    Ryd( 3d)     0.00099
    13    F    1  dyz    Ryd( 3d)     0.00186
    14    F    1  dx2y2  Ryd( 3d)     0.00116
    15    F    1  dz2    Ryd( 3d)     0.00157
 
    16    S    2  S      Cor( 1S)     2.00000
    17    S    2  S      Cor( 2S)     1.99920
    18    S    2  S      Val( 3S)     1.04773
    19    S    2  S      Ryd( 4S)     0.00451
    20    S    2  S      Ryd( 5S)     0.00026
    21    S    2  px     Cor( 2p)     1.99992
    22    S    2  px     Val( 3p)     0.90373
    23    S    2  px     Ryd( 4p)     0.00939
    24    S    2  py     Cor( 2p)     1.99987
    25    S    2  py     Val( 3p)     0.72114
    26    S    2  py     Ryd( 4p)     0.01092
    27    S    2  pz     Cor( 2p)     1.99988
    28    S    2  pz     Val( 3p)     0.72103
    29    S    2  pz     Ryd( 4p)     0.01077
    30    S    2  dxy    Ryd( 3d)     0.02180
    31    S    2  dxz    Ryd( 3d)     0.02814
    32    S    2  dyz    Ryd( 3d)     0.04155
    33    S    2  dx2y2  Ryd( 3d)     0.04088
    34    S    2  dz2    Ryd( 3d)     0.03905
 
    35    C    3  S      Cor( 1S)     1.99906
    36    C    3  S      Val( 2S)     0.90134
    37    C    3  S      Ryd( 3S)     0.00410
    38    C    3  S      Ryd( 4S)     0.00025
    39    C    3  px     Val( 2p)     1.05360
    40    C    3  px     Ryd( 3p)     0.01001
    41    C    3  py     Val( 2p)     0.87282
    42    C    3  py     Ryd( 3p)     0.01699
    43    C    3  pz     Val( 2p)     1.03787
    44    C    3  pz     Ryd( 3p)     0.00438
    45    C    3  dxy    Ryd( 3d)     0.00107
    46    C    3  dxz    Ryd( 3d)     0.00070
    47    C    3  dyz    Ryd( 3d)     0.00248
    48    C    3  dx2y2  Ryd( 3d)     0.00211
    49    C    3  dz2    Ryd( 3d)     0.00041
 
    50    N    4  S      Cor( 1S)     1.99906
    51    N    4  S      Val( 2S)     1.32494
    52    N    4  S      Ryd( 3S)     0.00113
    53    N    4  S      Ryd( 4S)     0.00001
    54    N    4  px     Val( 2p)     1.25908
    55    N    4  px     Ryd( 3p)     0.00444
    56    N    4  py     Val( 2p)     1.26797
    57    N    4  py     Ryd( 3p)     0.00407
    58    N    4  pz     Val( 2p)     1.45836
    59    N    4  pz     Ryd( 3p)     0.00468
    60    N    4  dxy    Ryd( 3d)     0.00240
    61    N    4  dxz    Ryd( 3d)     0.00093
    62    N    4  dyz    Ryd( 3d)     0.00344
    63    N    4  dx2y2  Ryd( 3d)     0.00284
    64    N    4  dz2    Ryd( 3d)     0.00160
 
    65    C    5  S      Cor( 1S)     1.99896
    66    C    5  S      Val( 2S)     0.80869
    67    C    5  S      Ryd( 3S)     0.00364
    68    C    5  S      Ryd( 4S)     0.00016
    69    C    5  px     Val( 2p)     0.89140
    70    C    5  px     Ryd( 3p)     0.00558
    71    C    5  py     Val( 2p)     0.95185
    72    C    5  py     Ryd( 3p)     0.01110
    73    C    5  pz     Val( 2p)     1.02436
    74    C    5  pz     Ryd( 3p)     0.00167
    75    C    5  dxy    Ryd( 3d)     0.00115
    76    C    5  dxz    Ryd( 3d)     0.00213
    77    C    5  dyz    Ryd( 3d)     0.00099
    78    C    5  dx2y2  Ryd( 3d)     0.00140
    79    C    5  dz2    Ryd( 3d)     0.00029
 
    80    N    6  S      Cor( 1S)     1.99940
    81    N    6  S      Val( 2S)     1.40100
    82    N    6  S      Ryd( 3S)     0.00072
    83    N    6  S      Ryd( 4S)     0.00001
    84    N    6  px     Val( 2p)     1.20115
    85    N    6  px     Ryd( 3p)     0.00374
    86    N    6  py     Val( 2p)     1.53057
    87    N    6  py     Ryd( 3p)     0.00373
    88    N    6  pz     Val( 2p)     1.27223
    89    N    6  pz     Ryd( 3p)     0.00081
    90    N    6  dxy    Ryd( 3d)     0.00356
    91    N    6  dxz    Ryd( 3d)     0.00075
    92    N    6  dyz    Ryd( 3d)     0.00416
    93    N    6  dx2y2  Ryd( 3d)     0.00286
    94    N    6  dz2    Ryd( 3d)     0.00240
 
    95    C    7  S      Cor( 1S)     1.99935
    96    C    7  S      Val( 2S)     0.89232
    97    C    7  S      Ryd( 3S)     0.00249
    98    C    7  S      Ryd( 4S)     0.00013
    99    C    7  px     Val( 2p)     1.06724
   100    C    7  px     Ryd( 3p)     0.00690
   101    C    7  py     Val( 2p)     0.81247
   102    C    7  py     Ryd( 3p)     0.00931
   103    C    7  pz     Val( 2p)     1.02154
   104    C    7  pz     Ryd( 3p)     0.00398
   105    C    7  dxy    Ryd( 3d)     0.00119
   106    C    7  dxz    Ryd( 3d)     0.00100
   107    C    7  dyz    Ryd( 3d)     0.00142
   108    C    7  dx2y2  Ryd( 3d)     0.00192
   109    C    7  dz2    Ryd( 3d)     0.00046
 
   110    N    8  S      Cor( 1S)     1.99926
   111    N    8  S      Val( 2S)     1.18114
   112    N    8  S      Ryd( 3S)     0.00109
   113    N    8  S      Ryd( 4S)     0.00002
   114    N    8  px     Val( 2p)     1.29694
   115    N    8  px     Ryd( 3p)     0.00222
   116    N    8  py     Val( 2p)     1.32651
   117    N    8  py     Ryd( 3p)     0.00194
   118    N    8  pz     Val( 2p)     1.56810
   119    N    8  pz     Ryd( 3p)     0.00289
   120    N    8  dxy    Ryd( 3d)     0.00070
   121    N    8  dxz    Ryd( 3d)     0.00087
   122    N    8  dyz    Ryd( 3d)     0.00097
   123    N    8  dx2y2  Ryd( 3d)     0.00080
   124    N    8  dz2    Ryd( 3d)     0.00057
 
   125    C    9  S      Cor( 1S)     1.99946
   126    C    9  S      Val( 2S)     1.09285
   127    C    9  S      Ryd( 3S)     0.00118
   128    C    9  S      Ryd( 4S)     0.00001
   129    C    9  px     Val( 2p)     1.03074
   130    C    9  px     Ryd( 3p)     0.00264
   131    C    9  py     Val( 2p)     1.09607
   132    C    9  py     Ryd( 3p)     0.00283
   133    C    9  pz     Val( 2p)     1.26344
   134    C    9  pz     Ryd( 3p)     0.00130
   135    C    9  dxy    Ryd( 3d)     0.00130
   136    C    9  dxz    Ryd( 3d)     0.00043
   137    C    9  dyz    Ryd( 3d)     0.00138
   138    C    9  dx2y2  Ryd( 3d)     0.00041
   139    C    9  dz2    Ryd( 3d)     0.00088
 
   140    C   10  S      Cor( 1S)     1.99897
   141    C   10  S      Val( 2S)     0.85134
   142    C   10  S      Ryd( 3S)     0.00276
   143    C   10  S      Ryd( 4S)     0.00008
   144    C   10  px     Val( 2p)     0.90073
   145    C   10  px     Ryd( 3p)     0.00372
   146    C   10  py     Val( 2p)     1.05304
   147    C   10  py     Ryd( 3p)     0.00578
   148    C   10  pz     Val( 2p)     1.07880
   149    C   10  pz     Ryd( 3p)     0.00141
   150    C   10  dxy    Ryd( 3d)     0.00083
   151    C   10  dxz    Ryd( 3d)     0.00155
   152    C   10  dyz    Ryd( 3d)     0.00122
   153    C   10  dx2y2  Ryd( 3d)     0.00103
   154    C   10  dz2    Ryd( 3d)     0.00045
 
   155    C   11  S      Cor( 1S)     1.99907
   156    C   11  S      Val( 2S)     0.91442
   157    C   11  S      Ryd( 3S)     0.00206
   158    C   11  S      Ryd( 4S)     0.00010
   159    C   11  px     Val( 2p)     0.90553
   160    C   11  px     Ryd( 3p)     0.00746
   161    C   11  py     Val( 2p)     1.15632
   162    C   11  py     Ryd( 3p)     0.00485
   163    C   11  pz     Val( 2p)     1.14924
   164    C   11  pz     Ryd( 3p)     0.00701
   165    C   11  dxy    Ryd( 3d)     0.00107
   166    C   11  dxz    Ryd( 3d)     0.00101
   167    C   11  dyz    Ryd( 3d)     0.00048
   168    C   11  dx2y2  Ryd( 3d)     0.00082
   169    C   11  dz2    Ryd( 3d)     0.00042
 
   170    N   12  S      Cor( 1S)     1.99917
   171    N   12  S      Val( 2S)     1.33660
   172    N   12  S      Ryd( 3S)     0.00056
   173    N   12  S      Ryd( 4S)     0.00002
   174    N   12  px     Val( 2p)     1.33957
   175    N   12  px     Ryd( 3p)     0.00422
   176    N   12  py     Val( 2p)     1.27954
   177    N   12  py     Ryd( 3p)     0.00483
   178    N   12  pz     Val( 2p)     1.31613
   179    N   12  pz     Ryd( 3p)     0.00168
   180    N   12  dxy    Ryd( 3d)     0.00218
   181    N   12  dxz    Ryd( 3d)     0.00154
   182    N   12  dyz    Ryd( 3d)     0.00265
   183    N   12  dx2y2  Ryd( 3d)     0.00266
   184    N   12  dz2    Ryd( 3d)     0.00171
 
   185    O   13  S      Cor( 1S)     1.99988
   186    O   13  S      Val( 2S)     1.83147
   187    O   13  S      Ryd( 3S)     0.00129
   188    O   13  S      Ryd( 4S)     0.00002
   189    O   13  px     Val( 2p)     1.76531
   190    O   13  px     Ryd( 3p)     0.00096
   191    O   13  py     Val( 2p)     1.71767
   192    O   13  py     Ryd( 3p)     0.00052
   193    O   13  pz     Val( 2p)     1.54162
   194    O   13  pz     Ryd( 3p)     0.00072
   195    O   13  dxy    Ryd( 3d)     0.00140
   196    O   13  dxz    Ryd( 3d)     0.00558
   197    O   13  dyz    Ryd( 3d)     0.00568
   198    O   13  dx2y2  Ryd( 3d)     0.00136
   199    O   13  dz2    Ryd( 3d)     0.00695
 
   200    O   14  S      Cor( 1S)     1.99988
   201    O   14  S      Val( 2S)     1.82933
   202    O   14  S      Ryd( 3S)     0.00121
   203    O   14  S      Ryd( 4S)     0.00002
   204    O   14  px     Val( 2p)     1.73094
   205    O   14  px     Ryd( 3p)     0.00086
   206    O   14  py     Val( 2p)     1.57161
   207    O   14  py     Ryd( 3p)     0.00077
   208    O   14  pz     Val( 2p)     1.72051
   209    O   14  pz     Ryd( 3p)     0.00053
   210    O   14  dxy    Ryd( 3d)     0.00534
   211    O   14  dxz    Ryd( 3d)     0.00219
   212    O   14  dyz    Ryd( 3d)     0.00519
   213    O   14  dx2y2  Ryd( 3d)     0.00527
   214    O   14  dz2    Ryd( 3d)     0.00311
 
   215    H   15  S      Val( 1S)     0.76330
   216    H   15  S      Ryd( 2S)     0.00047
 
   217    H   16  S      Val( 1S)     0.74586
   218    H   16  S      Ryd( 2S)     0.00108
 
   219    H   17  S      Val( 1S)     0.74079
   220    H   17  S      Ryd( 2S)     0.00057
 
   221    H   18  S      Val( 1S)     0.74589
   222    H   18  S      Ryd( 2S)     0.00109
 
   223    H   19  S      Val( 1S)     0.73113
   224    H   19  S      Ryd( 2S)     0.00063

 WARNING:  1 low occupancy (<1.9990e) core orbital  found on  C    5
           1 low occupancy (<1.9990e) core orbital  found on  C   10


 Summary of Natural Population Analysis:                  
                                                          
                                       Natural Population 
                Natural  -----------------------------------------------
    Atom  No    Charge         Core      Valence    Rydberg      Total
 -----------------------------------------------------------------------
      F    1   -0.49426      1.99997     7.48421    0.01008     9.49426
      S    2    2.40022      9.99887     3.39363    0.20727    13.59978
      C    3    0.09283      1.99906     3.86562    0.04250     5.90717
      N    4   -0.33495      1.99906     5.31035    0.02553     7.33495
      C    5    0.29661      1.99896     3.67631    0.02812     5.70339
      N    6   -0.42709      1.99940     5.40495    0.02274     7.42709
      C    7    0.17827      1.99935     3.79357    0.02881     5.82173
      N    8   -0.38402      1.99926     5.37269    0.01206     7.38402
      C    9   -0.49493      1.99946     4.48310    0.01238     6.49493
      C   10    0.09829      1.99897     3.88391    0.01883     5.90171
      C   11   -0.14986      1.99907     4.12551    0.02527     6.14986
      N   12   -0.29306      1.99917     5.27184    0.02205     7.29306
      O   13   -0.88045      1.99988     6.85608    0.02449     8.88045
      O   14   -0.87678      1.99988     6.85239    0.02451     8.87678
      H   15    0.23623      0.00000     0.76330    0.00047     0.76377
      H   16    0.25306      0.00000     0.74586    0.00108     0.74694
      H   17    0.25864      0.00000     0.74079    0.00057     0.74136
      H   18    0.25302      0.00000     0.74589    0.00109     0.74698
      H   19    0.26823      0.00000     0.73113    0.00063     0.73177
 =======================================================================
   * Total *   -0.00000     35.99037    73.50114    0.50849   110.00000

                                 Natural Population      
 --------------------------------------------------------
   Core                      35.99037 ( 99.9732% of  36)
   Valence                   73.50114 ( 99.3259% of  74)
   Natural Minimal Basis    109.49151 ( 99.5377% of 110)
   Natural Rydberg Basis      0.50849 (  0.4623% of 110)
 --------------------------------------------------------

    Atom  No          Natural Electron Configuration
 ----------------------------------------------------------------------------
      F    1      [core]2S( 1.93)2p( 5.56)3d( 0.01)
      S    2      [core]3S( 1.05)3p( 2.35)3d( 0.17)4p( 0.03)
      C    3      [core]2S( 0.90)2p( 2.96)3p( 0.03)3d( 0.01)
      N    4      [core]2S( 1.32)2p( 3.99)3p( 0.01)3d( 0.01)
      C    5      [core]2S( 0.81)2p( 2.87)3p( 0.02)3d( 0.01)
      N    6      [core]2S( 1.40)2p( 4.00)3p( 0.01)3d( 0.01)
      C    7      [core]2S( 0.89)2p( 2.90)3p( 0.02)3d( 0.01)
      N    8      [core]2S( 1.18)2p( 4.19)3p( 0.01)
      C    9      [core]2S( 1.09)2p( 3.39)3p( 0.01)
      C   10      [core]2S( 0.85)2p( 3.03)3p( 0.01)3d( 0.01)
      C   11      [core]2S( 0.91)2p( 3.21)3p( 0.02)
      N   12      [core]2S( 1.34)2p( 3.94)3p( 0.01)3d( 0.01)
      O   13      [core]2S( 1.83)2p( 5.02)3d( 0.02)
      O   14      [core]2S( 1.83)2p( 5.02)3d( 0.02)
      H   15            1S( 0.76)
      H   16            1S( 0.75)
      H   17            1S( 0.74)
      H   18            1S( 0.75)
      H   19            1S( 0.73)


 NBO analysis skipped by request.
 1\1\GINC-DELLA-R3C4N2\SP\RAPFD TD-FC\6-31G(d)\C6H5F1N4O2S1\SHIVAANI\28
 -Jan-2024\0\\# TD(NStates=10, Root=1) APFD/6-31G* volume pop=NPA densi
 ty=current Geom=AllCheck Guess=Read\\BWRLFZKXJHLHOU-UHFFFAOYSA-N_conf_
 0\\0,1\F,0,4.2448039384,-0.658397239,-0.6003868993\S,0,3.6608075947,-0
 .5558971976,0.8878959566\C,0,1.9156141076,-0.3322691906,0.452036901\N,
 0,1.6853881891,0.5206375334,-0.5280247911\C,0,0.3848901039,0.684785576
 1,-0.7718733855\N,0,-0.1882010553,1.4858224694,-1.7236381503\C,0,-1.47
 13903567,1.2980167178,-1.5534623891\N,0,-1.8045854827,0.4244775051,-0.
 5523348059\C,0,-3.130303853,0.0261696637,-0.1366627366\C,0,-0.61193167
 18,0.0060744424,-0.0224892138\C,0,-0.221969774,-0.8545044139,0.9945119
 512\N,0,1.0789789443,-1.0220446998,1.2256096204\O,0,4.1826340739,0.665
 9939463,1.4516864126\O,0,3.8626923956,-1.8443329113,1.5006825785\H,0,-
 2.2461471283,1.7785679949,-2.1396015952\H,0,-3.2576836544,-1.054233104
 6,-0.2517227625\H,0,-3.8643799657,0.5367911541,-0.7624127645\H,0,-3.30
 21577465,0.3026393263,0.9077563752\H,0,-0.9170586593,-1.4082975726,1.6
 224296982\\Version=ES64L-G16RevA.03\State=1-A\HF=-1098.4239485\RMSD=7.
 032e-09\Dipole=-3.6715963,-0.1482161,-0.2916861\Quadrupole=11.2133075,
 -6.1060136,-5.1072939,0.0804209,-2.3272878,1.3432966\PG=C01 [X(C6H5F1N
 4O2S1)]\\@


 10 WHATSOEVER THY HAND FINDETH TO DO, DO IT WITH THY  
 MIGHT. FOR THERE IS NO WORK, NOR DEVICE, NOR KNOWLEDGE, NOR  
 WISDOM, IN THE GRAVE, WHITHER THOU GOEST.                    
 11 I RETURNED AND SAW UNDER THE SUN, THAT THE RACE IS NOT TO 
 THE SWIFT, NOR THE BATTLE TO THE STRONG, NEITHER YET BREAD TO
 THE WISE, NOR YET RICHES TO MEN OF UNDERSTANDING, NOR YET    
 FAVOR TO MEN OF SKILL. BUT TIME AND CHANCE HAPPEN TO THEM ALL.
 12 FOR MAN ALSO KNOWETH NOT HIS TIME. AS THE FISHES   
 THAT ARE TAKEN IN AN EVIL NET, AND AS THE BIRDS THAT ARE     
 CAUGHT IN THE SNARE. SO ARE THE SONS OF MEN SNARED IN AN EVIL
 TIME, WHEN IT FALLETH SUDDENLY UPON THEM.
                                         ECCLESIASTES 9
 Job cpu time:       0 days  0 hours 16 minutes 12.4 seconds.
 Elapsed time:       0 days  0 hours  5 minutes 34.2 seconds.
 File lengths (MBytes):  RWF=    458 Int=      0 D2E=      0 Chk=    268 Scr=      1
 Normal termination of Gaussian 16 at Sun Jan 28 15:29:51 2024.
