 Entering Gaussian System, Link 0=g16
 Input=UMTDQZXIDLMQBD-UHFFFAOYSA-N_conf_0.gjf
 Output=UMTDQZXIDLMQBD-UHFFFAOYSA-N_conf_0.log
 Initial command:
 /opt/export/g16/l1.exe "/tmp/Gau-4192321.inp" -scrdir="/tmp/"
 Entering Link 1 = /opt/export/g16/l1.exe PID=   4192322.
  
 Copyright (c) 1988,1990,1992,1993,1995,1998,2003,2009,2016,
            Gaussian, Inc.  All Rights Reserved.
  
 This is part of the Gaussian(R) 16 program.  It is based on
 the Gaussian(R) 09 system (copyright 2009, Gaussian, Inc.),
 the Gaussian(R) 03 system (copyright 2003, Gaussian, Inc.),
 the Gaussian(R) 98 system (copyright 1998, Gaussian, Inc.),
 the Gaussian(R) 94 system (copyright 1995, Gaussian, Inc.),
 the Gaussian 92(TM) system (copyright 1992, Gaussian, Inc.),
 the Gaussian 90(TM) system (copyright 1990, Gaussian, Inc.),
 the Gaussian 88(TM) system (copyright 1988, Gaussian, Inc.),
 the Gaussian 86(TM) system (copyright 1986, Carnegie Mellon
 University), and the Gaussian 82(TM) system (copyright 1983,
 Carnegie Mellon University). Gaussian is a federally registered
 trademark of Gaussian, Inc.
  
 This software contains proprietary and confidential information,
 including trade secrets, belonging to Gaussian, Inc.
  
 This software is provided under written license and may be
 used, copied, transmitted, or stored only in accord with that
 written license.
  
 The following legend is applicable only to US Government
 contracts under FAR:
  
                    RESTRICTED RIGHTS LEGEND
  
 Use, reproduction and disclosure by the US Government is
 subject to restrictions as set forth in subparagraphs (a)
 and (c) of the Commercial Computer Software - Restricted
 Rights clause in FAR 52.227-19.
  
 Gaussian, Inc.
 340 Quinnipiac St., Bldg. 40, Wallingford CT 06492
  
  
 ---------------------------------------------------------------
 Warning -- This program may not be used in any manner that
 competes with the business of Gaussian, Inc. or will provide
 assistance to any competitor of Gaussian, Inc.  The licensee
 of this program is prohibited from giving any competitor of
 Gaussian, Inc. access to this program.  By using this program,
 the user acknowledges that Gaussian, Inc. is engaged in the
 business of creating and licensing software in the field of
 computational chemistry and represents and warrants to the
 licensee that it is not a competitor of Gaussian, Inc. and that
 it will not use this program in any manner prohibited above.
 ---------------------------------------------------------------
  

 Cite this work as:
 Gaussian 16, Revision A.03,
 M. J. Frisch, G. W. Trucks, H. B. Schlegel, G. E. Scuseria, 
 M. A. Robb, J. R. Cheeseman, G. Scalmani, V. Barone, 
 G. A. Petersson, H. Nakatsuji, X. Li, M. Caricato, A. V. Marenich, 
 J. Bloino, B. G. Janesko, R. Gomperts, B. Mennucci, H. P. Hratchian, 
 J. V. Ortiz, A. F. Izmaylov, J. L. Sonnenberg, D. Williams-Young, 
 F. Ding, F. Lipparini, F. Egidi, J. Goings, B. Peng, A. Petrone, 
 T. Henderson, D. Ranasinghe, V. G. Zakrzewski, J. Gao, N. Rega, 
 G. Zheng, W. Liang, M. Hada, M. Ehara, K. Toyota, R. Fukuda, 
 J. Hasegawa, M. Ishida, T. Nakajima, Y. Honda, O. Kitao, H. Nakai, 
 T. Vreven, K. Throssell, J. A. Montgomery, Jr., J. E. Peralta, 
 F. Ogliaro, M. J. Bearpark, J. J. Heyd, E. N. Brothers, K. N. Kudin, 
 V. N. Staroverov, T. A. Keith, R. Kobayashi, J. Normand, 
 K. Raghavachari, A. P. Rendell, J. C. Burant, S. S. Iyengar, 
 J. Tomasi, M. Cossi, J. M. Millam, M. Klene, C. Adamo, R. Cammi, 
 J. W. Ochterski, R. L. Martin, K. Morokuma, O. Farkas, 
 J. B. Foresman, and D. J. Fox, Gaussian, Inc., Wallingford CT, 2016.
 
 ******************************************
 Gaussian 16:  ES64L-G16RevA.03 25-Dec-2016
                28-Jan-2024 
 ******************************************
 %nprocshared=3
 Will use up to    3 processors via shared memory.
 %mem=6GB
 %Chk=UMTDQZXIDLMQBD-UHFFFAOYSA-N_conf_0_0.chk
 --------------------------------
 # opt=CalcFc APFD/6-31G* scf=xqc
 --------------------------------
 1/10=4,18=20,19=15,26=3,38=1/1,3;
 2/9=110,12=2,17=6,18=5,40=1/2;
 3/5=1,6=6,7=1,11=2,25=1,30=1,71=2,74=-44,140=1/1,2,3;
 4//1;
 5/5=2,8=3,13=1,38=5/2,8;
 8/6=4,10=90,11=11/1;
 11/6=1,8=1,9=11,15=111,16=1/1,2,10;
 10/6=1,13=1/2;
 6/7=2,8=2,9=2,10=2,28=1/1;
 7/10=1,18=20,25=1/1,2,3,16;
 1/10=4,18=20,19=15,26=3/3(2);
 2/9=110/2;
 99//99;
 2/9=110/2;
 3/5=1,6=6,7=1,11=2,25=1,30=1,71=1,74=-44/1,2,3;
 4/5=5,16=3,69=1/1;
 5/5=2,8=3,13=1,38=5/2,8;
 7//1,2,3,16;
 1/18=20,19=15,26=3/3(-5);
 2/9=110/2;
 6/7=2,8=2,9=2,10=2,19=2,28=1/1;
 99/9=1/99;
 ----------------------------------
 UMTDQZXIDLMQBD-UHFFFAOYSA-N_conf_0
 ----------------------------------
 Symbolic Z-matrix:
 Charge =  0 Multiplicity = 1
 F                     4.42864  -0.30408   0.32002 
 S                     3.20743   0.53455   0.91196 
 C                     1.72439  -0.10449   0.13721 
 N                     0.5677    0.49452   0.52177 
 C                    -0.47123  -0.0657   -0.1224 
 N                    -1.7954    0.25423  -0.01179 
 C                    -2.34406   1.27834   0.8374 
 C                    -2.49401  -0.57094  -0.84905 
 N                    -1.69974  -1.40285  -1.49208 
 C                    -0.43538  -1.09981  -1.04939 
 C                     0.8199   -1.6244   -1.35369 
 N                     1.92426  -1.11721  -0.74852 
 O                     3.43186   1.89314   0.44831 
 O                     3.18006   0.20121   2.3259 
 H                    -2.09125   1.04278   1.87432 
 H                    -1.91294   2.23957   0.54622 
 H                    -3.43018   1.30901   0.71921 
 H                    -3.57123  -0.52644  -0.95347 
 H                     0.96118  -2.43142  -2.06193 
 

 GradGradGradGradGradGradGradGradGradGradGradGradGradGradGradGradGradGrad
 Berny optimization.
 Initialization pass.
                           ----------------------------
                           !    Initial Parameters    !
                           ! (Angstroms and Degrees)  !
 --------------------------                            --------------------------
 ! Name  Definition              Value          Derivative Info.                !
 --------------------------------------------------------------------------------
 ! R1    R(1,2)                  1.5953         calculate D2E/DX2 analytically  !
 ! R2    R(2,3)                  1.7911         calculate D2E/DX2 analytically  !
 ! R3    R(2,13)                 1.453          calculate D2E/DX2 analytically  !
 ! R4    R(2,14)                 1.453          calculate D2E/DX2 analytically  !
 ! R5    R(3,4)                  1.3582         calculate D2E/DX2 analytically  !
 ! R6    R(3,12)                 1.3602         calculate D2E/DX2 analytically  !
 ! R7    R(4,5)                  1.3447         calculate D2E/DX2 analytically  !
 ! R8    R(5,6)                  1.3668         calculate D2E/DX2 analytically  !
 ! R9    R(5,10)                 1.3892         calculate D2E/DX2 analytically  !
 ! R10   R(6,7)                  1.4391         calculate D2E/DX2 analytically  !
 ! R11   R(6,8)                  1.3675         calculate D2E/DX2 analytically  !
 ! R12   R(7,15)                 1.093          calculate D2E/DX2 analytically  !
 ! R13   R(7,16)                 1.093          calculate D2E/DX2 analytically  !
 ! R14   R(7,17)                 1.093          calculate D2E/DX2 analytically  !
 ! R15   R(8,9)                  1.3177         calculate D2E/DX2 analytically  !
 ! R16   R(8,18)                 1.0832         calculate D2E/DX2 analytically  !
 ! R17   R(9,10)                 1.3735         calculate D2E/DX2 analytically  !
 ! R18   R(10,11)                1.3941         calculate D2E/DX2 analytically  !
 ! R19   R(11,12)                1.3576         calculate D2E/DX2 analytically  !
 ! R20   R(11,19)                1.083          calculate D2E/DX2 analytically  !
 ! A1    A(1,2,3)              106.6053         calculate D2E/DX2 analytically  !
 ! A2    A(1,2,13)             104.7676         calculate D2E/DX2 analytically  !
 ! A3    A(1,2,14)             104.7676         calculate D2E/DX2 analytically  !
 ! A4    A(3,2,13)             108.8736         calculate D2E/DX2 analytically  !
 ! A5    A(3,2,14)             108.8739         calculate D2E/DX2 analytically  !
 ! A6    A(13,2,14)            121.8681         calculate D2E/DX2 analytically  !
 ! A7    A(2,3,4)              115.1722         calculate D2E/DX2 analytically  !
 ! A8    A(2,3,12)             115.192          calculate D2E/DX2 analytically  !
 ! A9    A(4,3,12)             129.6358         calculate D2E/DX2 analytically  !
 ! A10   A(3,4,5)              109.7926         calculate D2E/DX2 analytically  !
 ! A11   A(4,5,6)              127.7528         calculate D2E/DX2 analytically  !
 ! A12   A(4,5,10)             127.5775         calculate D2E/DX2 analytically  !
 ! A13   A(6,5,10)             104.6696         calculate D2E/DX2 analytically  !
 ! A14   A(5,6,7)              125.7122         calculate D2E/DX2 analytically  !
 ! A15   A(5,6,8)              107.7075         calculate D2E/DX2 analytically  !
 ! A16   A(7,6,8)              126.5803         calculate D2E/DX2 analytically  !
 ! A17   A(6,7,15)             108.5578         calculate D2E/DX2 analytically  !
 ! A18   A(6,7,16)             108.5578         calculate D2E/DX2 analytically  !
 ! A19   A(6,7,17)             109.5738         calculate D2E/DX2 analytically  !
 ! A20   A(15,7,16)            110.5519         calculate D2E/DX2 analytically  !
 ! A21   A(15,7,17)            109.7852         calculate D2E/DX2 analytically  !
 ! A22   A(16,7,17)            109.7854         calculate D2E/DX2 analytically  !
 ! A23   A(6,8,9)              111.8265         calculate D2E/DX2 analytically  !
 ! A24   A(6,8,18)             122.8403         calculate D2E/DX2 analytically  !
 ! A25   A(9,8,18)             125.3333         calculate D2E/DX2 analytically  !
 ! A26   A(8,9,10)             104.9688         calculate D2E/DX2 analytically  !
 ! A27   A(5,10,9)             110.8275         calculate D2E/DX2 analytically  !
 ! A28   A(5,10,11)            116.6788         calculate D2E/DX2 analytically  !
 ! A29   A(9,10,11)            132.4937         calculate D2E/DX2 analytically  !
 ! A30   A(10,11,12)           119.6418         calculate D2E/DX2 analytically  !
 ! A31   A(10,11,19)           122.726          calculate D2E/DX2 analytically  !
 ! A32   A(12,11,19)           117.6322         calculate D2E/DX2 analytically  !
 ! A33   A(3,12,11)            116.6734         calculate D2E/DX2 analytically  !
 ! D1    D(1,2,3,4)           -179.9969         calculate D2E/DX2 analytically  !
 ! D2    D(1,2,3,12)             0.0019         calculate D2E/DX2 analytically  !
 ! D3    D(13,2,3,4)           -67.474          calculate D2E/DX2 analytically  !
 ! D4    D(13,2,3,12)          112.5248         calculate D2E/DX2 analytically  !
 ! D5    D(14,2,3,4)            67.4801         calculate D2E/DX2 analytically  !
 ! D6    D(14,2,3,12)         -112.5211         calculate D2E/DX2 analytically  !
 ! D7    D(2,3,4,5)            179.9991         calculate D2E/DX2 analytically  !
 ! D8    D(12,3,4,5)             0.0005         calculate D2E/DX2 analytically  !
 ! D9    D(2,3,12,11)         -179.9994         calculate D2E/DX2 analytically  !
 ! D10   D(4,3,12,11)           -0.0008         calculate D2E/DX2 analytically  !
 ! D11   D(3,4,5,6)           -179.9996         calculate D2E/DX2 analytically  !
 ! D12   D(3,4,5,10)             0.0002         calculate D2E/DX2 analytically  !
 ! D13   D(4,5,6,7)             -0.0006         calculate D2E/DX2 analytically  !
 ! D14   D(4,5,6,8)            180.0            calculate D2E/DX2 analytically  !
 ! D15   D(10,5,6,7)           179.9996         calculate D2E/DX2 analytically  !
 ! D16   D(10,5,6,8)             0.0001         calculate D2E/DX2 analytically  !
 ! D17   D(4,5,10,9)           179.9998         calculate D2E/DX2 analytically  !
 ! D18   D(4,5,10,11)           -0.0006         calculate D2E/DX2 analytically  !
 ! D19   D(6,5,10,9)            -0.0003         calculate D2E/DX2 analytically  !
 ! D20   D(6,5,10,11)          179.9993         calculate D2E/DX2 analytically  !
 ! D21   D(5,6,7,15)           -60.1143         calculate D2E/DX2 analytically  !
 ! D22   D(5,6,7,16)            60.1062         calculate D2E/DX2 analytically  !
 ! D23   D(5,6,7,17)           179.9961         calculate D2E/DX2 analytically  !
 ! D24   D(8,6,7,15)           119.885          calculate D2E/DX2 analytically  !
 ! D25   D(8,6,7,16)          -119.8945         calculate D2E/DX2 analytically  !
 ! D26   D(8,6,7,17)            -0.0046         calculate D2E/DX2 analytically  !
 ! D27   D(5,6,8,9)              0.0001         calculate D2E/DX2 analytically  !
 ! D28   D(5,6,8,18)           179.9996         calculate D2E/DX2 analytically  !
 ! D29   D(7,6,8,9)           -179.9993         calculate D2E/DX2 analytically  !
 ! D30   D(7,6,8,18)             0.0002         calculate D2E/DX2 analytically  !
 ! D31   D(6,8,9,10)            -0.0003         calculate D2E/DX2 analytically  !
 ! D32   D(18,8,9,10)         -179.9998         calculate D2E/DX2 analytically  !
 ! D33   D(8,9,10,5)             0.0004         calculate D2E/DX2 analytically  !
 ! D34   D(8,9,10,11)         -179.9991         calculate D2E/DX2 analytically  !
 ! D35   D(5,10,11,12)           0.0003         calculate D2E/DX2 analytically  !
 ! D36   D(5,10,11,19)        -179.999          calculate D2E/DX2 analytically  !
 ! D37   D(9,10,11,12)         179.9998         calculate D2E/DX2 analytically  !
 ! D38   D(9,10,11,19)           0.0005         calculate D2E/DX2 analytically  !
 ! D39   D(10,11,12,3)           0.0003         calculate D2E/DX2 analytically  !
 ! D40   D(19,11,12,3)         179.9996         calculate D2E/DX2 analytically  !
 --------------------------------------------------------------------------------
 Trust Radius=3.00D-01 FncErr=1.00D-07 GrdErr=1.00D-06 EigMax=2.50D+02 EigMin=1.00D-04
 Number of steps in this run=    103 maximum allowed number of steps=    114.
 GradGradGradGradGradGradGradGradGradGradGradGradGradGradGradGradGradGrad

                          Input orientation:                          
 ---------------------------------------------------------------------
 Center     Atomic      Atomic             Coordinates (Angstroms)
 Number     Number       Type             X           Y           Z
 ---------------------------------------------------------------------
      1          9           0        4.428639   -0.304084    0.320020
      2         16           0        3.207434    0.534554    0.911959
      3          6           0        1.724387   -0.104489    0.137206
      4          7           0        0.567697    0.494518    0.521769
      5          6           0       -0.471229   -0.065695   -0.122402
      6          7           0       -1.795404    0.254232   -0.011787
      7          6           0       -2.344061    1.278345    0.837402
      8          6           0       -2.494015   -0.570943   -0.849047
      9          7           0       -1.699739   -1.402854   -1.492078
     10          6           0       -0.435380   -1.099806   -1.049390
     11          6           0        0.819902   -1.624404   -1.353690
     12          7           0        1.924256   -1.117212   -0.748524
     13          8           0        3.431864    1.893140    0.448315
     14          8           0        3.180062    0.201211    2.325897
     15          1           0       -2.091249    1.042778    1.874324
     16          1           0       -1.912936    2.239570    0.546216
     17          1           0       -3.430180    1.309006    0.719212
     18          1           0       -3.571232   -0.526444   -0.953468
     19          1           0        0.961183   -2.431422   -2.061932
 ---------------------------------------------------------------------
                    Distance matrix (angstroms):
                    1          2          3          4          5
     1  F    0.000000
     2  S    1.595320   0.000000
     3  C    2.717764   1.791102   0.000000
     4  N    3.947827   2.668719   1.358171   0.000000
     5  C    4.925574   3.868173   2.211251   1.344680   0.000000
     6  N    6.257837   5.095123   3.541159   2.434475   1.366759
     7  C    6.974327   5.601597   4.353708   3.031888   2.497032
     8  C    7.025743   6.068755   4.357199   3.519719   2.207929
     9  N    6.484444   5.797697   4.008111   3.577271   2.274476
    10  C    5.115383   4.448384   2.657679   2.452871   1.389236
    11  C    4.191364   3.936315   2.313224   2.840913   2.369106
    12  N    2.841637   2.670596   1.360175   2.459995   2.689993
    13  O    2.416156   1.452959   2.646278   3.188259   4.404190
    14  O    2.416156   1.452958   2.646283   3.188316   4.404241
    15  H    6.836581   5.409296   4.346594   3.033148   2.800017
    16  H    6.836440   5.409162   4.346494   3.033042   2.799967
    17  H    8.032586   6.685420   5.376453   4.084776   3.369496
    18  H    8.103650   7.110263   5.423208   4.511033   3.242372
    19  H    4.714076   4.763054   3.291399   3.923196   3.377905
                    6          7          8          9         10
     6  N    0.000000
     7  C    1.439081   0.000000
     8  C    1.367470   2.507282   0.000000
     9  N    2.224039   3.609773   1.317740   0.000000
    10  C    2.181675   3.585896   2.134903   1.373468   0.000000
    11  C    3.488525   4.820529   3.513757   2.533145   1.394107
    12  N    4.032309   5.145133   4.453047   3.710499   2.378803
    13  O    5.497458   5.821570   6.547587   6.400160   5.114335
    14  O    5.497531   5.821664   6.547644   6.400189   5.114355
    15  H    2.065610   1.092984   3.191092   4.179362   3.985056
    16  H    2.065611   1.092984   3.191144   4.179396   3.985042
    17  H    2.078316   1.092960   2.621078   3.903641   4.230739
    18  H    2.156335   2.823194   1.083181   2.135575   3.189281
    19  H    4.360574   5.752664   4.107415   2.909156   2.179181
                   11         12         13         14         15
    11  C    0.000000
    12  N    1.357596   0.000000
    13  O    4.737371   3.573168   0.000000
    14  O    4.737361   3.573144   2.539949   0.000000
    15  H    5.099877   5.260150   5.767270   5.357134   0.000000
    16  H    5.099837   5.260074   5.356910   5.767218   1.796658
    17  H    5.564621   6.058941   6.892187   6.892311   1.788266
    18  H    4.543980   5.530949   7.540738   7.540801   3.556573
    19  H    1.082979   2.092772   5.577404   5.577385   6.073016
                   16         17         18         19
    16  H    0.000000
    17  H    1.788269   0.000000
    18  H    3.556660   2.487293   0.000000
    19  H    6.072986   6.403876   5.039883   0.000000
 Stoichiometry    C6H5FN4O2S
 Framework group  C1[X(C6H5FN4O2S)]
 Deg. of freedom    51
 Full point group                 C1      NOp   1
 Largest Abelian subgroup         C1      NOp   1
 Largest concise Abelian subgroup C1      NOp   1
                         Standard orientation:                         
 ---------------------------------------------------------------------
 Center     Atomic      Atomic             Coordinates (Angstroms)
 Number     Number       Type             X           Y           Z
 ---------------------------------------------------------------------
      1          9           0       -3.337050    0.939194   -0.000073
      2         16           0       -2.400431   -0.352236    0.000005
      3          6           0       -0.710468    0.241120    0.000018
      4          7           0        0.241803   -0.727286    0.000015
      5          6           0        1.463200   -0.164833    0.000007
      6          7           0        2.675297   -0.796379   -0.000005
      7          6           0        2.880330   -2.220779    0.000001
      8          6           0        3.646096    0.166702   -0.000011
      9          7           0        3.132381    1.380183    0.000000
     10          6           0        1.772200    1.189602    0.000005
     11          6           0        0.696941    2.076932    0.000000
     12          7           0       -0.571939    1.594222    0.000003
     13          8           0       -2.669402   -1.004892   -1.269950
     14          8           0       -2.669467   -1.004786    1.269999
     15          1           0        2.418883   -2.638636    0.898375
     16          1           0        2.418734   -2.638665   -0.898283
     17          1           0        3.951792   -2.436488   -0.000082
     18          1           0        4.704056   -0.065681   -0.000014
     19          1           0        0.825251    3.152283   -0.000018
 ---------------------------------------------------------------------
 Rotational constants (GHZ):           1.4705471           0.3876332           0.3279592
 Standard basis: 6-31G(d) (6D, 7F)
 There are   224 symmetry adapted cartesian basis functions of A   symmetry.
 There are   224 symmetry adapted basis functions of A   symmetry.
   224 basis functions,   436 primitive gaussians,   224 cartesian basis functions
    55 alpha electrons       55 beta electrons
       nuclear repulsion energy      1031.4564703855 Hartrees.
 NAtoms=   19 NActive=   19 NUniq=   19 SFac= 1.00D+00 NAtFMM=   60 NAOKFM=F Big=F
 Integral buffers will be    131072 words long.
 Raffenetti 2 integral format.
 Two-electron integral symmetry is turned on.
 R6APFD:  NTU= -4 IXU= 1 FactS= 1.050
 Nuclear repulsion after empirical dispersion term =     1031.4403838686 Hartrees.
 One-electron integrals computed using PRISM.
 NBasis=   224 RedAO= T EigKep=  8.13D-04  NBF=   224
 NBsUse=   224 1.00D-06 EigRej= -1.00D+00 NBFU=   224
 ExpMin= 1.17D-01 ExpMax= 2.19D+04 ExpMxC= 3.30D+03 IAcc=3 IRadAn=         5 AccDes= 0.00D+00
 Harris functional with IExCor= 3731 and IRadAn=       5 diagonalized for initial guess.
 HarFok:  IExCor= 3731 AccDes= 0.00D+00 IRadAn=         5 IDoV= 1 UseB2=F ITyADJ=14
 ICtDFT=  3500011 ScaDFX=  1.000000  1.000000  1.000000  1.000000
 FoFCou: FMM=F IPFlag=           0 FMFlag=      100000 FMFlg1=           0
         NFxFlg=           0 DoJE=T BraDBF=F KetDBF=T FulRan=T
         wScrn=  0.000000 ICntrl=       500 IOpCl=  0 I1Cent=   200000004 NGrid=           0
         NMat0=    1 NMatS0=      1 NMatT0=    0 NMatD0=    1 NMtDS0=    0 NMtDT0=    0
 Petite list used in FoFCou.
 Keep R1 ints in memory in canonical form, NReq=323229189.
 Requested convergence on RMS density matrix=1.00D-08 within  32 cycles.
 Requested convergence on MAX density matrix=1.00D-06.
 Requested convergence on             energy=1.00D-06.
 No special actions if energy rises.
 Integral accuracy reduced to 1.0D-05 until final iterations.
 Initial convergence to 1.0D-05 achieved.  Increase integral accuracy.
 SCF Done:  E(RAPFD) =  -1098.42065163     A.U. after   15 cycles
            NFock= 15  Conv=0.49D-08     -V/T= 2.0068
 QCSCF skips out because SCF is already converged.
 DoSCS=F DFT=T ScalE2(SS,OS)=  1.000000  1.000000
 Range of M.O.s used for correlation:     1   224
 NBasis=   224 NAE=    55 NBE=    55 NFC=     0 NFV=     0
 NROrb=    224 NOA=    55 NOB=    55 NVA=   169 NVB=   169
 R6APFD:  NTU= -4 IXU= 1 FactS= 1.050
 Symmetrizing basis deriv contribution to polar:
 IMax=3 JMax=2 DiffMx= 0.00D+00
 G2DrvN: will do    20 centers at a time, making    1 passes.
 Calling FoFCou, ICntrl=  3107 FMM=F I1Cent=   0 AccDes= 0.00D+00.
 End of G2Drv F.D. properties file   721 does not exist.
 End of G2Drv F.D. properties file   722 does not exist.
 End of G2Drv F.D. properties file   788 does not exist.
          IDoAtm=1111111111111111111
          Differentiating once with respect to nuclear coordinates.
 Keep R1 ints in memory in canonical form, NReq=323237179.
          There are    60 degrees of freedom in the 1st order CPHF.  IDoFFX=6 NUNeed=     0.
     54 vectors produced by pass  0 Test12= 1.55D-14 1.67D-09 XBig12= 3.08D-01 1.36D-01.
 AX will form    54 AO Fock derivatives at one time.
     54 vectors produced by pass  1 Test12= 1.55D-14 1.67D-09 XBig12= 3.84D-02 7.41D-02.
     54 vectors produced by pass  2 Test12= 1.55D-14 1.67D-09 XBig12= 5.97D-04 7.10D-03.
     54 vectors produced by pass  3 Test12= 1.55D-14 1.67D-09 XBig12= 5.28D-06 5.31D-04.
     54 vectors produced by pass  4 Test12= 1.55D-14 1.67D-09 XBig12= 1.96D-08 2.92D-05.
     53 vectors produced by pass  5 Test12= 1.55D-14 1.67D-09 XBig12= 5.20D-11 1.73D-06.
     28 vectors produced by pass  6 Test12= 1.55D-14 1.67D-09 XBig12= 6.78D-14 3.94D-08.
 InvSVY:  IOpt=1 It=  1 EMax= 3.33D-16
 Solved reduced A of dimension   351 with    60 vectors.
 End of Minotr F.D. properties file   721 does not exist.
 End of Minotr F.D. properties file   722 does not exist.
 End of Minotr F.D. properties file   788 does not exist.

 **********************************************************************

            Population analysis using the SCF density.

 **********************************************************************

 Orbital symmetries:
       Occupied  (A) (A) (A) (A) (A) (A) (A) (A) (A) (A) (A) (A)
                 (A) (A) (A) (A) (A) (A) (A) (A) (A) (A) (A) (A)
                 (A) (A) (A) (A) (A) (A) (A) (A) (A) (A) (A) (A)
                 (A) (A) (A) (A) (A) (A) (A) (A) (A) (A) (A) (A)
                 (A) (A) (A) (A) (A) (A) (A)
       Virtual   (A) (A) (A) (A) (A) (A) (A) (A) (A) (A) (A) (A)
                 (A) (A) (A) (A) (A) (A) (A) (A) (A) (A) (A) (A)
                 (A) (A) (A) (A) (A) (A) (A) (A) (A) (A) (A) (A)
                 (A) (A) (A) (A) (A) (A) (A) (A) (A) (A) (A) (A)
                 (A) (A) (A) (A) (A) (A) (A) (A) (A) (A) (A) (A)
                 (A) (A) (A) (A) (A) (A) (A) (A) (A) (A) (A) (A)
                 (A) (A) (A) (A) (A) (A) (A) (A) (A) (A) (A) (A)
                 (A) (A) (A) (A) (A) (A) (A) (A) (A) (A) (A) (A)
                 (A) (A) (A) (A) (A) (A) (A) (A) (A) (A) (A) (A)
                 (A) (A) (A) (A) (A) (A) (A) (A) (A) (A) (A) (A)
                 (A) (A) (A) (A) (A) (A) (A) (A) (A) (A) (A) (A)
                 (A) (A) (A) (A) (A) (A) (A) (A) (A) (A) (A) (A)
                 (A) (A) (A) (A) (A) (A) (A) (A) (A) (A) (A) (A)
                 (A) (A) (A) (A) (A) (A) (A) (A) (A) (A) (A) (A)
                 (A)
 The electronic state is 1-A.
 Alpha  occ. eigenvalues --  -89.23538 -24.78968 -19.20951 -19.20951 -14.47701
 Alpha  occ. eigenvalues --  -14.43217 -14.41871 -14.39455 -10.34797 -10.32507
 Alpha  occ. eigenvalues --  -10.32203 -10.30111 -10.28682 -10.28050  -8.21363
 Alpha  occ. eigenvalues --   -6.16318  -6.15922  -6.15884  -1.28026  -1.12759
 Alpha  occ. eigenvalues --   -1.10246  -1.04478  -1.03256  -0.96591  -0.93535
 Alpha  occ. eigenvalues --   -0.84025  -0.78416  -0.75141  -0.71513  -0.66770
 Alpha  occ. eigenvalues --   -0.64858  -0.59882  -0.59315  -0.54851  -0.53757
 Alpha  occ. eigenvalues --   -0.53647  -0.51608  -0.51165  -0.49380  -0.47536
 Alpha  occ. eigenvalues --   -0.47297  -0.45491  -0.44935  -0.44803  -0.42866
 Alpha  occ. eigenvalues --   -0.39357  -0.37959  -0.37542  -0.34665  -0.34398
 Alpha  occ. eigenvalues --   -0.32720  -0.32428  -0.31020  -0.29779  -0.28897
 Alpha virt. eigenvalues --   -0.08796  -0.04958   0.00649   0.00668   0.06407
 Alpha virt. eigenvalues --    0.07720   0.10261   0.10810   0.11281   0.11760
 Alpha virt. eigenvalues --    0.13786   0.14522   0.15301   0.17287   0.18524
 Alpha virt. eigenvalues --    0.20942   0.22794   0.24800   0.28264   0.29959
 Alpha virt. eigenvalues --    0.31195   0.32085   0.34728   0.37711   0.39621
 Alpha virt. eigenvalues --    0.40747   0.42224   0.42609   0.46231   0.47996
 Alpha virt. eigenvalues --    0.50580   0.51770   0.53626   0.56425   0.57872
 Alpha virt. eigenvalues --    0.58019   0.59181   0.60322   0.61771   0.63473
 Alpha virt. eigenvalues --    0.66732   0.67970   0.69833   0.71026   0.73652
 Alpha virt. eigenvalues --    0.74379   0.76312   0.76526   0.79673   0.80122
 Alpha virt. eigenvalues --    0.80453   0.81418   0.82679   0.83152   0.83643
 Alpha virt. eigenvalues --    0.84498   0.85914   0.87310   0.87836   0.88966
 Alpha virt. eigenvalues --    0.91345   0.92038   0.92461   0.94852   0.98368
 Alpha virt. eigenvalues --    0.99622   1.03187   1.03247   1.04703   1.05623
 Alpha virt. eigenvalues --    1.09170   1.11148   1.14441   1.16400   1.17825
 Alpha virt. eigenvalues --    1.18095   1.21497   1.25109   1.26189   1.28291
 Alpha virt. eigenvalues --    1.28878   1.29112   1.31866   1.35200   1.35730
 Alpha virt. eigenvalues --    1.37642   1.38876   1.41331   1.44418   1.45637
 Alpha virt. eigenvalues --    1.48879   1.50638   1.55668   1.59175   1.60969
 Alpha virt. eigenvalues --    1.62251   1.64267   1.68971   1.71758   1.77180
 Alpha virt. eigenvalues --    1.78758   1.78978   1.79214   1.81086   1.82072
 Alpha virt. eigenvalues --    1.82985   1.83604   1.86224   1.86492   1.87784
 Alpha virt. eigenvalues --    1.88735   1.91233   1.93191   1.94813   1.96915
 Alpha virt. eigenvalues --    1.97403   2.00454   2.00681   2.06487   2.09427
 Alpha virt. eigenvalues --    2.13503   2.13667   2.15214   2.17673   2.20235
 Alpha virt. eigenvalues --    2.22150   2.22569   2.23099   2.24427   2.25202
 Alpha virt. eigenvalues --    2.28784   2.31037   2.33843   2.34334   2.41427
 Alpha virt. eigenvalues --    2.46134   2.48790   2.50214   2.53733   2.58820
 Alpha virt. eigenvalues --    2.60554   2.63177   2.66381   2.68486   2.71934
 Alpha virt. eigenvalues --    2.73463   2.80832   2.81573   2.84345   2.85998
 Alpha virt. eigenvalues --    2.94303   2.99077   3.10823   3.23607   3.34747
 Alpha virt. eigenvalues --    3.78355   3.86514   3.94912   3.98407   4.01073
 Alpha virt. eigenvalues --    4.06475   4.12530   4.20004   4.28402   4.30973
 Alpha virt. eigenvalues --    4.38139   4.40779   4.60367   4.64090
          Condensed to atoms (all electrons):
               1          2          3          4          5          6
     1  F    9.153499   0.216434  -0.026014   0.000470  -0.000017   0.000000
     2  S    0.216434  13.461045   0.169881  -0.014013  -0.001833  -0.000292
     3  C   -0.026014   0.169881   5.249347   0.359098  -0.046718   0.003969
     4  N    0.000470  -0.014013   0.359098   6.953201   0.372086  -0.076792
     5  C   -0.000017  -0.001833  -0.046718   0.372086   4.700400   0.313500
     6  N    0.000000  -0.000292   0.003969  -0.076792   0.313500   6.991786
     7  C    0.000000   0.000016  -0.000160   0.003617  -0.037718   0.234434
     8  C   -0.000000   0.000001  -0.000029   0.002867  -0.091494   0.366583
     9  N    0.000000  -0.000001   0.000442   0.006927  -0.083761  -0.072424
    10  C   -0.000007   0.001204  -0.038127  -0.043268   0.405826  -0.093321
    11  C    0.000166  -0.000895  -0.062819  -0.026346  -0.062751   0.008054
    12  N    0.001789  -0.017323   0.337429  -0.051292  -0.041304   0.000380
    13  O   -0.036737   0.460060  -0.050870  -0.000533  -0.000146   0.000000
    14  O   -0.036737   0.460062  -0.050869  -0.000534  -0.000146   0.000000
    15  H   -0.000000   0.000002  -0.000004   0.001902  -0.002796  -0.038161
    16  H   -0.000000   0.000002  -0.000004   0.001903  -0.002796  -0.038159
    17  H    0.000000  -0.000000   0.000002   0.000131   0.003985  -0.031663
    18  H    0.000000  -0.000000   0.000006  -0.000041   0.003667  -0.051267
    19  H    0.000006  -0.000110   0.005829  -0.000531   0.004602  -0.000082
               7          8          9         10         11         12
     1  F    0.000000  -0.000000   0.000000  -0.000007   0.000166   0.001789
     2  S    0.000016   0.000001  -0.000001   0.001204  -0.000895  -0.017323
     3  C   -0.000160  -0.000029   0.000442  -0.038127  -0.062819   0.337429
     4  N    0.003617   0.002867   0.006927  -0.043268  -0.026346  -0.051292
     5  C   -0.037718  -0.091494  -0.083761   0.405826  -0.062751  -0.041304
     6  N    0.234434   0.366583  -0.072424  -0.093321   0.008054   0.000380
     7  C    5.068986  -0.034918   0.005212   0.009967  -0.000152   0.000026
     8  C   -0.034918   4.724550   0.518267  -0.102495   0.004482  -0.000260
     9  N    0.005212   0.518267   6.830044   0.386559  -0.047999   0.003446
    10  C    0.009967  -0.102495   0.386559   4.879729   0.442048   0.003954
    11  C   -0.000152   0.004482  -0.047999   0.442048   4.907369   0.415567
    12  N    0.000026  -0.000260   0.003446   0.003954   0.415567   6.821843
    13  O   -0.000000  -0.000000  -0.000000   0.000015  -0.000124   0.000542
    14  O   -0.000000  -0.000000  -0.000000   0.000015  -0.000124   0.000542
    15  H    0.382281   0.001087  -0.000158   0.000014   0.000004  -0.000001
    16  H    0.382280   0.001087  -0.000158   0.000014   0.000004  -0.000001
    17  H    0.379089  -0.002516   0.000185  -0.000123   0.000004   0.000000
    18  H    0.000474   0.383496  -0.032826   0.004574  -0.000135   0.000002
    19  H    0.000002  -0.000170   0.001793  -0.056051   0.378700  -0.048926
              13         14         15         16         17         18
     1  F   -0.036737  -0.036737  -0.000000  -0.000000   0.000000   0.000000
     2  S    0.460060   0.460062   0.000002   0.000002  -0.000000  -0.000000
     3  C   -0.050870  -0.050869  -0.000004  -0.000004   0.000002   0.000006
     4  N   -0.000533  -0.000534   0.001902   0.001903   0.000131  -0.000041
     5  C   -0.000146  -0.000146  -0.002796  -0.002796   0.003985   0.003667
     6  N    0.000000   0.000000  -0.038161  -0.038159  -0.031663  -0.051267
     7  C   -0.000000  -0.000000   0.382281   0.382280   0.379089   0.000474
     8  C   -0.000000  -0.000000   0.001087   0.001087  -0.002516   0.383496
     9  N   -0.000000  -0.000000  -0.000158  -0.000158   0.000185  -0.032826
    10  C    0.000015   0.000015   0.000014   0.000014  -0.000123   0.004574
    11  C   -0.000124  -0.000124   0.000004   0.000004   0.000004  -0.000135
    12  N    0.000542   0.000542  -0.000001  -0.000001   0.000000   0.000002
    13  O    8.143552  -0.041629  -0.000000  -0.000000  -0.000000   0.000000
    14  O   -0.041629   8.143550  -0.000000  -0.000000  -0.000000   0.000000
    15  H   -0.000000  -0.000000   0.479346  -0.027130  -0.024242  -0.000074
    16  H   -0.000000  -0.000000  -0.027130   0.479339  -0.024240  -0.000074
    17  H   -0.000000  -0.000000  -0.024242  -0.024240   0.492652   0.002838
    18  H    0.000000   0.000000  -0.000074  -0.000074   0.002838   0.467430
    19  H    0.000000   0.000000   0.000000   0.000000  -0.000000  -0.000002
              19
     1  F    0.000006
     2  S   -0.000110
     3  C    0.005829
     4  N   -0.000531
     5  C    0.004602
     6  N   -0.000082
     7  C    0.000002
     8  C   -0.000170
     9  N    0.001793
    10  C   -0.056051
    11  C    0.378700
    12  N   -0.048926
    13  O    0.000000
    14  O    0.000000
    15  H    0.000000
    16  H    0.000000
    17  H   -0.000000
    18  H   -0.000002
    19  H    0.491372
 Mulliken charges:
               1
     1  F   -0.272852
     2  S    1.265758
     3  C    0.149608
     4  N   -0.488853
     5  C    0.567412
     6  N   -0.516548
     7  C   -0.393437
     8  C    0.229461
     9  N   -0.515549
    10  C    0.199472
    11  C    0.044946
    12  N   -0.426416
    13  O   -0.474131
    14  O   -0.474130
    15  H    0.227930
    16  H    0.227933
    17  H    0.203898
    18  H    0.221931
    19  H    0.223566
 Sum of Mulliken charges =  -0.00000
 Mulliken charges with hydrogens summed into heavy atoms:
               1
     1  F   -0.272852
     2  S    1.265758
     3  C    0.149608
     4  N   -0.488853
     5  C    0.567412
     6  N   -0.516548
     7  C    0.266324
     8  C    0.451393
     9  N   -0.515549
    10  C    0.199472
    11  C    0.268513
    12  N   -0.426416
    13  O   -0.474131
    14  O   -0.474130
 APT charges:
               1
     1  F    0.068892
     2  S    0.177853
     3  C   -0.019885
     4  N   -0.533169
     5  C    0.223185
     6  N   -0.251953
     7  C   -1.351775
     8  C   -0.317900
     9  N   -0.244282
    10  C   -0.161495
    11  C   -0.367693
    12  N   -0.369357
    13  O   -0.078298
    14  O   -0.078275
    15  H    0.335419
    16  H    0.335373
    17  H    0.871761
    18  H    1.023455
    19  H    0.738143
 Sum of APT charges =  -0.00000
 APT charges with hydrogens summed into heavy atoms:
               1
     1  F    0.068892
     2  S    0.177853
     3  C   -0.019885
     4  N   -0.533169
     5  C    0.223185
     6  N   -0.251953
     7  C    0.190779
     8  C    0.705555
     9  N   -0.244282
    10  C   -0.161495
    11  C    0.370449
    12  N   -0.369357
    13  O   -0.078298
    14  O   -0.078275
 Electronic spatial extent (au):  <R**2>=           3159.5216
 Charge=             -0.0000 electrons
 Dipole moment (field-independent basis, Debye):
    X=              7.5340    Y=             -0.9454    Z=             -0.0000  Tot=              7.5931
 Quadrupole moment (field-independent basis, Debye-Ang):
   XX=            -80.8645   YY=            -82.2706   ZZ=            -88.2205
   XY=            -15.4916   XZ=              0.0002   YZ=             -0.0001
 Traceless Quadrupole moment (field-independent basis, Debye-Ang):
   XX=              2.9207   YY=              1.5146   ZZ=             -4.4353
   XY=            -15.4916   XZ=              0.0002   YZ=             -0.0001
 Octapole moment (field-independent basis, Debye-Ang**2):
  XXX=             49.5034  YYY=             -5.6408  ZZZ=             -0.0006  XYY=              4.4137
  XXY=            -38.7293  XXZ=             -0.0014  XZZ=             -2.6827  YZZ=              1.8534
  YYZ=             -0.0000  XYZ=              0.0002
 Hexadecapole moment (field-independent basis, Debye-Ang**3):
 XXXX=          -2637.5629 YYYY=           -738.9548 ZZZZ=           -193.9319 XXXY=           -211.9256
 XXXZ=              0.0019 YYYX=            -61.4549 YYYZ=             -0.0009 ZZZX=              0.0030
 ZZZY=             -0.0008 XXYY=           -641.7145 XXZZ=           -553.1520 YYZZ=           -168.5753
 XXYZ=              0.0002 YYXZ=             -0.0007 ZZXY=            -22.6805
 N-N= 1.031440383869D+03 E-N=-4.644911271259D+03  KE= 1.091000183634D+03
  Exact polarizability:   0.000   0.000   0.000   0.000   0.000   0.000
 Approx polarizability: 229.041  -8.799 191.899  -0.001   0.000 101.557
 R6APFD:  NTU= -4 IXU= 1 FactS= 1.050
 Calling FoFJK, ICntrl=    100147 FMM=F ISym2X=0 I1Cent= 0 IOpClX= 0 NMat=1 NMatS=1 NMatT=0.
 ***** Axes restored to original set *****
 -------------------------------------------------------------------
 Center     Atomic                   Forces (Hartrees/Bohr)
 Number     Number              X              Y              Z
 -------------------------------------------------------------------
      1        9          -0.011124441   -0.007091523   -0.007882215
      2       16           0.011950007    0.027842123    0.026691028
      3        6          -0.024709627   -0.020565427   -0.021849018
      4        7           0.019362475   -0.018254381   -0.013850849
      5        6           0.004690956    0.018122903    0.016959701
      6        7          -0.009162664    0.009439833    0.007275568
      7        6           0.001945347    0.002964339    0.002932718
      8        6           0.028391252   -0.011435742   -0.006493702
      9        7          -0.009911623   -0.002960722   -0.003998972
     10        6           0.000959029   -0.015815825   -0.014121977
     11        6           0.014264935    0.012228629    0.012931877
     12        7          -0.019744988    0.010274954    0.006610879
     13        8          -0.005209153   -0.010740922    0.001781091
     14        8          -0.003427205    0.001232879   -0.011506158
     15        1          -0.000940976    0.004213843    0.001033911
     16        1          -0.001328105    0.001616203    0.003915419
     17        1           0.001574813   -0.000417300   -0.000165018
     18        1           0.000899487    0.001134222    0.001142378
     19        1           0.001520479   -0.001788085   -0.001406660
 -------------------------------------------------------------------
 Cartesian Forces:  Max     0.028391252 RMS     0.011934685
 FormGI is forming the generalized inverse of G from B-inverse, IUseBI=4.

 GradGradGradGradGradGradGradGradGradGradGradGradGradGradGradGradGradGrad
 Berny optimization.
 Internal  Forces:  Max     0.034777185 RMS     0.008366975
 Search for a local minimum.
 Step number   1 out of a maximum of  103
 All quantities printed in internal units (Hartrees-Bohrs-Radians)
 Mixed Optimization -- RFO/linear search
 Second derivative matrix not updated -- analytic derivatives used.
 ITU=  0
     Eigenvalues ---   -0.00156  -0.00029   0.00571   0.01400   0.01784
     Eigenvalues ---    0.01982   0.02497   0.02652   0.02791   0.03659
     Eigenvalues ---    0.04381   0.05325   0.06193   0.06217   0.11381
     Eigenvalues ---    0.11906   0.14204   0.14304   0.14772   0.15129
     Eigenvalues ---    0.16129   0.16790   0.17488   0.18825   0.18871
     Eigenvalues ---    0.19253   0.19641   0.19906   0.23454   0.24105
     Eigenvalues ---    0.25930   0.27207   0.30165   0.33577   0.34949
     Eigenvalues ---    0.35115   0.35512   0.36174   0.37397   0.37902
     Eigenvalues ---    0.39121   0.40399   0.41614   0.42235   0.44319
     Eigenvalues ---    0.47163   0.47729   0.53558   0.57992   0.65656
     Eigenvalues ---    0.65826
 RFO step:  Lambda=-1.81907509D-02 EMin=-1.55769326D-03
 Linear search not attempted -- first point.
 Iteration  1 RMS(Cart)=  0.12031409 RMS(Int)=  0.02842630
 Iteration  2 RMS(Cart)=  0.04890769 RMS(Int)=  0.00214227
 Iteration  3 RMS(Cart)=  0.00222318 RMS(Int)=  0.00028471
 Iteration  4 RMS(Cart)=  0.00000386 RMS(Int)=  0.00028471
 Iteration  5 RMS(Cart)=  0.00000000 RMS(Int)=  0.00028471
 Variable       Old X    -DE/DX   Delta X   Delta X   Delta X     New X
                                 (Linear)    (Quad)   (Total)
    R1        3.01472  -0.00186   0.00000  -0.00708  -0.00708   3.00764
    R2        3.38469   0.00147   0.00000   0.02802   0.02802   3.41271
    R3        2.74569  -0.01142   0.00000  -0.02051  -0.02051   2.72518
    R4        2.74569  -0.01142   0.00000  -0.01824  -0.01824   2.72746
    R5        2.56657  -0.03257   0.00000  -0.06598  -0.06581   2.50076
    R6        2.57036  -0.02310   0.00000  -0.06608  -0.06593   2.50443
    R7        2.54108  -0.02027   0.00000  -0.03769  -0.03767   2.50340
    R8        2.58280  -0.00522   0.00000  -0.00431  -0.00426   2.57854
    R9        2.62528   0.01698   0.00000   0.04153   0.04123   2.66651
   R10        2.71947   0.01004   0.00000   0.01429   0.01429   2.73376
   R11        2.58414   0.00612   0.00000   0.01230   0.01249   2.59664
   R12        2.06544  -0.00014   0.00000   0.00062   0.00062   2.06606
   R13        2.06544  -0.00015   0.00000  -0.00185  -0.00185   2.06359
   R14        2.06540  -0.00156   0.00000  -0.00340  -0.00340   2.06200
   R15        2.49017  -0.00487   0.00000  -0.01945  -0.01937   2.47080
   R16        2.04692  -0.00096   0.00000   0.00036   0.00036   2.04728
   R17        2.59548  -0.00415   0.00000   0.00215   0.00200   2.59748
   R18        2.63448  -0.00481   0.00000  -0.00357  -0.00373   2.63075
   R19        2.56548  -0.02212   0.00000  -0.04060  -0.04063   2.52486
   R20        2.04653   0.00245   0.00000   0.00764   0.00764   2.05418
    A1        1.86061  -0.03478   0.00000  -0.14595  -0.14655   1.71407
    A2        1.82854   0.01311   0.00000   0.04119   0.04067   1.86921
    A3        1.82854   0.01311   0.00000   0.03954   0.03858   1.86712
    A4        1.90020  -0.00162   0.00000   0.01866   0.01814   1.91834
    A5        1.90021  -0.00162   0.00000   0.01232   0.01168   1.91189
    A6        2.12700   0.00616   0.00000   0.00821   0.00763   2.13463
    A7        2.01013  -0.01529   0.00000  -0.06595  -0.06635   1.94379
    A8        2.01048   0.00303   0.00000   0.04836   0.04792   2.05840
    A9        2.26257   0.01226   0.00000   0.01760   0.01756   2.28013
   A10        1.91624   0.00037   0.00000   0.01967   0.01995   1.93619
   A11        2.22971   0.00105   0.00000   0.01123   0.01132   2.24102
   A12        2.22665  -0.00602   0.00000  -0.02790  -0.02798   2.19867
   A13        1.82683   0.00497   0.00000   0.01667   0.01660   1.84343
   A14        2.19409   0.00382   0.00000   0.00867   0.00845   2.20254
   A15        1.87985  -0.01443   0.00000  -0.04036  -0.04025   1.83960
   A16        2.20924   0.01061   0.00000   0.03169   0.03146   2.24070
   A17        1.89469   0.00550   0.00000   0.03109   0.03100   1.92569
   A18        1.89469   0.00550   0.00000   0.01479   0.01470   1.90939
   A19        1.91242  -0.00259   0.00000  -0.01241  -0.01237   1.90006
   A20        1.92950  -0.00508   0.00000  -0.02419  -0.02442   1.90508
   A21        1.91611  -0.00159   0.00000  -0.00365  -0.00361   1.91250
   A22        1.91612  -0.00159   0.00000  -0.00509  -0.00505   1.91106
   A23        1.95174   0.01864   0.00000   0.05163   0.05184   2.00358
   A24        2.14397  -0.01093   0.00000  -0.04029  -0.04040   2.10356
   A25        2.18748  -0.00771   0.00000  -0.01134  -0.01145   2.17603
   A26        1.83205  -0.00962   0.00000  -0.02185  -0.02198   1.81007
   A27        1.93431   0.00044   0.00000  -0.00609  -0.00623   1.92808
   A28        2.03643  -0.00608   0.00000  -0.01655  -0.01673   2.01970
   A29        2.31245   0.00563   0.00000   0.02265   0.02295   2.33540
   A30        2.08814  -0.00265   0.00000   0.00223   0.00203   2.09017
   A31        2.14197   0.00257   0.00000   0.00050   0.00060   2.14257
   A32        2.05307   0.00008   0.00000  -0.00273  -0.00263   2.05044
   A33        2.03634   0.00212   0.00000   0.00497   0.00512   2.04145
    D1       -3.14154  -0.00000   0.00000   0.27761   0.27801  -2.86353
    D2        0.00003   0.00000   0.00000   0.31795   0.31796   0.31800
    D3       -1.17764  -0.00279   0.00000   0.26176   0.26198  -0.91566
    D4        1.96393  -0.00279   0.00000   0.30211   0.30193   2.26586
    D5        1.17775   0.00279   0.00000   0.29830   0.29827   1.47601
    D6       -1.96386   0.00279   0.00000   0.33865   0.33822  -1.62564
    D7        3.14158   0.00000   0.00000   0.05317   0.05235  -3.08925
    D8        0.00001  -0.00000   0.00000   0.00576   0.00583   0.00584
    D9       -3.14158  -0.00000   0.00000  -0.04467  -0.04591   3.09570
   D10       -0.00001   0.00000   0.00000   0.00274   0.00313   0.00312
   D11       -3.14159  -0.00000   0.00000   0.00363   0.00349  -3.13810
   D12        0.00000  -0.00000   0.00000  -0.01034  -0.01044  -0.01044
   D13       -0.00001   0.00000   0.00000  -0.03440  -0.03422  -0.03423
   D14        3.14159  -0.00000   0.00000  -0.00738  -0.00783   3.13377
   D15        3.14158   0.00000   0.00000  -0.02295  -0.02252   3.11907
   D16        0.00000  -0.00000   0.00000   0.00406   0.00388   0.00388
   D17        3.14159   0.00000   0.00000   0.00928   0.00922  -3.13237
   D18       -0.00001   0.00000   0.00000   0.00629   0.00632   0.00631
   D19       -0.00001   0.00000   0.00000  -0.00214  -0.00211  -0.00211
   D20        3.14158   0.00000   0.00000  -0.00513  -0.00502   3.13656
   D21       -1.04919  -0.00015   0.00000  -0.18992  -0.18981  -1.23900
   D22        1.04905   0.00015   0.00000  -0.19229  -0.19197   0.85708
   D23        3.14152  -0.00000   0.00000  -0.19689  -0.19668   2.94484
   D24        2.09239  -0.00015   0.00000  -0.22196  -0.22228   1.87011
   D25       -2.09255   0.00015   0.00000  -0.22433  -0.22444  -2.31699
   D26       -0.00008  -0.00000   0.00000  -0.22894  -0.22915  -0.22923
   D27        0.00000  -0.00000   0.00000  -0.00486  -0.00480  -0.00479
   D28        3.14159   0.00000   0.00000  -0.00154  -0.00149   3.14010
   D29       -3.14158  -0.00000   0.00000   0.02245   0.02238  -3.11920
   D30        0.00000   0.00000   0.00000   0.02577   0.02568   0.02569
   D31       -0.00001   0.00000   0.00000   0.00338   0.00339   0.00339
   D32       -3.14159  -0.00000   0.00000  -0.00004  -0.00007   3.14152
   D33        0.00001  -0.00000   0.00000  -0.00070  -0.00069  -0.00068
   D34       -3.14158  -0.00000   0.00000   0.00292   0.00294  -3.13863
   D35        0.00001   0.00000   0.00000   0.00368   0.00373   0.00374
   D36       -3.14157  -0.00000   0.00000   0.00264   0.00254  -3.13904
   D37        3.14159  -0.00000   0.00000  -0.00010  -0.00004   3.14155
   D38        0.00001  -0.00000   0.00000  -0.00115  -0.00124  -0.00123
   D39        0.00001  -0.00000   0.00000  -0.00756  -0.00791  -0.00790
   D40        3.14159   0.00000   0.00000  -0.00657  -0.00678   3.13481
         Item               Value     Threshold  Converged?
 Maximum Force            0.034777     0.000450     NO 
 RMS     Force            0.008367     0.000300     NO 
 Maximum Displacement     0.608742     0.001800     NO 
 RMS     Displacement     0.158403     0.001200     NO 
 Predicted change in Energy=-1.012678D-02
 GradGradGradGradGradGradGradGradGradGradGradGradGradGradGradGradGradGrad

                          Input orientation:                          
 ---------------------------------------------------------------------
 Center     Atomic      Atomic             Coordinates (Angstroms)
 Number     Number       Type             X           Y           Z
 ---------------------------------------------------------------------
      1          9           0        4.284552   -0.047440    0.010441
      2         16           0        3.148551    0.561978    0.943829
      3          6           0        1.715099   -0.129715    0.090507
      4          7           0        0.598512    0.483868    0.448268
      5          6           0       -0.454124   -0.071652   -0.133370
      6          7           0       -1.768213    0.277667   -0.019254
      7          6           0       -2.302530    1.332504    0.814171
      8          6           0       -2.450590   -0.600072   -0.826742
      9          7           0       -1.699063   -1.470808   -1.448477
     10          6           0       -0.427153   -1.161826   -1.028840
     11          6           0        0.832504   -1.687070   -1.303458
     12          7           0        1.913082   -1.156142   -0.724129
     13          8           0        3.179911    1.993278    0.770447
     14          8           0        3.287129   -0.061436    2.238158
     15          1           0       -2.238495    1.052493    1.869075
     16          1           0       -1.730608    2.248383    0.651240
     17          1           0       -3.345950    1.501718    0.543472
     18          1           0       -3.528548   -0.540430   -0.917007
     19          1           0        0.985934   -2.525298   -1.978332
 ---------------------------------------------------------------------
                    Distance matrix (angstroms):
                    1          2          3          4          5
     1  F    0.000000
     2  S    1.591573   0.000000
     3  C    2.572017   1.805930   0.000000
     4  N    3.749783   2.598919   1.323345   0.000000
     5  C    4.740920   3.813281   2.181518   1.324745   0.000000
     6  N    6.061563   5.018260   3.508770   2.421257   1.364505
     7  C    6.777897   5.506797   4.336256   3.044687   2.507208
     8  C    6.809436   5.986290   4.291334   3.478161   2.178502
     9  N    6.321240   5.775354   3.977877   3.563321   2.288453
    10  C    4.951982   4.432672   2.628200   2.437651   1.411054
    11  C    4.041207   3.933521   2.268803   2.799333   2.373625
    12  N    2.718950   2.694514   1.325286   2.406707   2.669978
    13  O    2.441797   1.442104   2.667413   3.007613   4.276334
    14  O    2.440855   1.443308   2.662395   3.275626   4.429586
    15  H    6.871283   5.487891   4.493531   3.223451   2.908172
    16  H    6.470208   5.170664   4.224058   2.929081   2.761808
    17  H    7.804395   6.574339   5.336756   4.074784   3.360991
    18  H    7.883384   7.018666   5.355334   4.466071   3.207167
    19  H    4.579944   4.769404   3.248168   3.885043   3.390875
                    6          7          8          9         10
     6  N    0.000000
     7  C    1.446643   0.000000
     8  C    1.374082   2.539561   0.000000
     9  N    2.259342   3.652713   1.307490   0.000000
    10  C    2.211299   3.624281   2.109670   1.374525   0.000000
    11  C    3.503298   4.840518   3.491064   2.544922   1.392132
    12  N    4.013052   5.131385   4.400157   3.697470   2.359996
    13  O    5.296308   5.522291   6.401486   6.381842   5.118889
    14  O    5.546836   5.934231   6.527264   6.359223   5.067546
    15  H    2.094591   1.093311   3.169130   4.202879   4.072110
    16  H    2.081994   1.092005   3.288845   4.271088   4.018854
    17  H    2.074660   1.091163   2.663958   3.939037   4.252764
    18  H    2.138696   2.829837   1.083373   2.120161   3.165010
    19  H    4.390890   5.787461   4.103943   2.932899   2.181148
                   11         12         13         14         15
    11  C    0.000000
    12  N    1.336097   0.000000
    13  O    4.832842   3.709106   0.000000
    14  O    4.605531   3.444058   2.527355   0.000000
    15  H    5.196269   5.370137   5.608135   5.648857   0.000000
    16  H    5.087060   5.172901   4.918586   5.747284   1.780793
    17  H    5.571265   6.027308   6.548283   7.022333   1.784792
    18  H    4.525804   5.479748   7.366858   7.525820   3.458886
    19  H    1.087024   2.075383   5.725981   5.398602   6.164419
                   16         17         18         19
    16  H    0.000000
    17  H    1.782821   0.000000
    18  H    3.670076   2.517282   0.000000
    19  H    6.089522   6.429741   5.044468   0.000000
 Stoichiometry    C6H5FN4O2S
 Framework group  C1[X(C6H5FN4O2S)]
 Deg. of freedom    51
 Full point group                 C1      NOp   1
 Largest Abelian subgroup         C1      NOp   1
 Largest concise Abelian subgroup C1      NOp   1
                         Standard orientation:                         
 ---------------------------------------------------------------------
 Center     Atomic      Atomic             Coordinates (Angstroms)
 Number     Number       Type             X           Y           Z
 ---------------------------------------------------------------------
      1          9           0       -3.165842    0.939891   -0.398854
      2         16           0       -2.379258   -0.372141    0.040417
      3          6           0       -0.703708    0.298695   -0.021981
      4          7           0        0.202126   -0.666027   -0.026439
      5          6           0        1.428055   -0.164340   -0.007563
      6          7           0        2.617563   -0.832878   -0.008907
      7          6           0        2.790411   -2.269057    0.008073
      8          6           0        3.584716    0.143087    0.005488
      9          7           0        3.127602    1.368058    0.010181
     10          6           0        1.762632    1.206436    0.002676
     11          6           0        0.687483    2.090787   -0.000508
     12          7           0       -0.561482    1.616256   -0.008306
     13          8           0       -2.558203   -1.345056   -1.008907
     14          8           0       -2.740880   -0.641122    1.411554
     15          1           0        2.512349   -2.673657    0.984961
     16          1           0        2.157820   -2.719628   -0.759580
     17          1           0        3.836220   -2.501035   -0.199543
     18          1           0        4.634912   -0.122946    0.009002
     19          1           0        0.813876    3.170428    0.004179
 ---------------------------------------------------------------------
 Rotational constants (GHZ):           1.4347438           0.4026224           0.3365211
 Standard basis: 6-31G(d) (6D, 7F)
 There are   224 symmetry adapted cartesian basis functions of A   symmetry.
 There are   224 symmetry adapted basis functions of A   symmetry.
   224 basis functions,   436 primitive gaussians,   224 cartesian basis functions
    55 alpha electrons       55 beta electrons
       nuclear repulsion energy      1038.7138116807 Hartrees.
 NAtoms=   19 NActive=   19 NUniq=   19 SFac= 1.00D+00 NAtFMM=   60 NAOKFM=F Big=F
 Integral buffers will be    131072 words long.
 Raffenetti 2 integral format.
 Two-electron integral symmetry is turned on.
 R6APFD:  NTU= -4 IXU= 1 FactS= 1.050
 Nuclear repulsion after empirical dispersion term =     1038.6977624995 Hartrees.
 One-electron integrals computed using PRISM.
 NBasis=   224 RedAO= T EigKep=  8.11D-04  NBF=   224
 NBsUse=   224 1.00D-06 EigRej= -1.00D+00 NBFU=   224
 Initial guess from the checkpoint file:  "UMTDQZXIDLMQBD-UHFFFAOYSA-N_conf_0_0.chk"
 B after Tr=     0.000000    0.000000   -0.000000
         Rot=    0.999289    0.037399    0.002687    0.003866 Ang=   4.32 deg.
 ExpMin= 1.17D-01 ExpMax= 2.19D+04 ExpMxC= 3.30D+03 IAcc=2 IRadAn=         4 AccDes= 0.00D+00
 Harris functional with IExCor= 3731 and IRadAn=       4 diagonalized for initial guess.
 HarFok:  IExCor= 3731 AccDes= 0.00D+00 IRadAn=         4 IDoV= 1 UseB2=F ITyADJ=14
 ICtDFT=  3500011 ScaDFX=  1.000000  1.000000  1.000000  1.000000
 FoFCou: FMM=F IPFlag=           0 FMFlag=      100000 FMFlg1=           0
         NFxFlg=           0 DoJE=T BraDBF=F KetDBF=T FulRan=T
         wScrn=  0.000000 ICntrl=       500 IOpCl=  0 I1Cent=   200000004 NGrid=           0
         NMat0=    1 NMatS0=      1 NMatT0=    0 NMatD0=    1 NMtDS0=    0 NMtDT0=    0
 Petite list used in FoFCou.
 Keep R1 ints in memory in canonical form, NReq=323229189.
 Requested convergence on RMS density matrix=1.00D-08 within  32 cycles.
 Requested convergence on MAX density matrix=1.00D-06.
 Requested convergence on             energy=1.00D-06.
 No special actions if energy rises.
 Integral accuracy reduced to 1.0D-05 until final iterations.
 Initial convergence to 1.0D-05 achieved.  Increase integral accuracy.
 SCF Done:  E(RAPFD) =  -1098.42989243     A.U. after   14 cycles
            NFock= 14  Conv=0.79D-08     -V/T= 2.0065
 QCSCF skips out because SCF is already converged.
 R6APFD:  NTU= -4 IXU= 1 FactS= 1.050
 Calling FoFJK, ICntrl=      2127 FMM=F ISym2X=0 I1Cent= 0 IOpClX= 0 NMat=1 NMatS=1 NMatT=0.
 ***** Axes restored to original set *****
 -------------------------------------------------------------------
 Center     Atomic                   Forces (Hartrees/Bohr)
 Number     Number              X              Y              Z
 -------------------------------------------------------------------
      1        9           0.003189968   -0.000206715   -0.001094282
      2       16          -0.002005629   -0.000218008    0.000608676
      3        6           0.000601814    0.001493654    0.000502961
      4        7          -0.002446235    0.001430566    0.001510787
      5        6          -0.001035007    0.001424203    0.000298920
      6        7          -0.001133350    0.000587999    0.000384084
      7        6           0.000056886   -0.000013135   -0.000030427
      8        6           0.001345901   -0.000408356   -0.000108048
      9        7          -0.000792133   -0.000648425   -0.000602022
     10        6           0.000351626   -0.001552560   -0.001378245
     11        6           0.000256808   -0.000089475   -0.000135546
     12        7           0.000655320   -0.002185242   -0.000717012
     13        8           0.000284221    0.000206601   -0.000180307
     14        8           0.000813899   -0.000288571    0.000490285
     15        1          -0.000041344    0.000369635    0.000099713
     16        1          -0.000001658    0.000074235    0.000310156
     17        1          -0.000033348    0.000089173    0.000056919
     18        1          -0.000072713    0.000128375    0.000118423
     19        1           0.000004974   -0.000193954   -0.000135034
 -------------------------------------------------------------------
 Cartesian Forces:  Max     0.003189968 RMS     0.000928382

 GradGradGradGradGradGradGradGradGradGradGradGradGradGradGradGradGradGrad
 Berny optimization.
 Using GEDIIS/GDIIS optimizer.
 FormGI is forming the generalized inverse of G from B-inverse, IUseBI=4.
 Internal  Forces:  Max     0.003491560 RMS     0.000832703
 Search for a local minimum.
 Step number   2 out of a maximum of  103
 All quantities printed in internal units (Hartrees-Bohrs-Radians)
 Mixed Optimization -- En-DIIS/RFO-DIIS
 Update second derivatives using D2CorX and points    1    2
 DE= -9.24D-03 DEPred=-1.01D-02 R= 9.13D-01
 TightC=F SS=  1.41D+00  RLast= 9.35D-01 DXNew= 5.0454D-01 2.8042D+00
 Trust test= 9.13D-01 RLast= 9.35D-01 DXMaxT set to 5.05D-01
 ITU=  1  0
 Use linear search instead of GDIIS.
     Eigenvalues ---   -0.00165  -0.00029   0.00571   0.01400   0.01784
     Eigenvalues ---    0.01981   0.02496   0.02651   0.02790   0.03658
     Eigenvalues ---    0.04378   0.05323   0.06193   0.06216   0.11379
     Eigenvalues ---    0.11907   0.14182   0.14315   0.14963   0.15123
     Eigenvalues ---    0.16063   0.16802   0.17401   0.18824   0.19039
     Eigenvalues ---    0.19351   0.19834   0.20520   0.23461   0.24123
     Eigenvalues ---    0.25853   0.27133   0.30205   0.33584   0.34949
     Eigenvalues ---    0.35121   0.35516   0.36145   0.37348   0.37885
     Eigenvalues ---    0.39154   0.40311   0.41268   0.42875   0.44346
     Eigenvalues ---    0.46754   0.48041   0.53708   0.58368   0.65649
     Eigenvalues ---    0.65847
 RFO step:  Lambda=-1.85823452D-03 EMin=-1.65156435D-03
 Quartic linear search produced a step of -0.02310.
 Iteration  1 RMS(Cart)=  0.11007596 RMS(Int)=  0.05099787
 Iteration  2 RMS(Cart)=  0.08872408 RMS(Int)=  0.00709976
 Iteration  3 RMS(Cart)=  0.00749858 RMS(Int)=  0.00009890
 Iteration  4 RMS(Cart)=  0.00003873 RMS(Int)=  0.00009653
 Iteration  5 RMS(Cart)=  0.00000000 RMS(Int)=  0.00009653
 Variable       Old X    -DE/DX   Delta X   Delta X   Delta X     New X
                                 (Linear)    (Quad)   (Total)
    R1        3.00764   0.00300   0.00016   0.00921   0.00938   3.01701
    R2        3.41271   0.00153  -0.00065   0.00461   0.00397   3.41668
    R3        2.72518   0.00023   0.00047  -0.00070  -0.00023   2.72495
    R4        2.72746   0.00064   0.00042   0.00255   0.00297   2.73043
    R5        2.50076   0.00349   0.00152   0.00700   0.00857   2.50933
    R6        2.50443   0.00231   0.00152   0.00511   0.00668   2.51111
    R7        2.50340   0.00118   0.00087   0.00238   0.00325   2.50665
    R8        2.57854   0.00040   0.00010   0.00088   0.00099   2.57953
    R9        2.66651   0.00251  -0.00095   0.00400   0.00301   2.66951
   R10        2.73376   0.00064  -0.00033   0.00047   0.00014   2.73390
   R11        2.59664   0.00039  -0.00029   0.00036   0.00008   2.59672
   R12        2.06606  -0.00000  -0.00001   0.00130   0.00128   2.06734
   R13        2.06359   0.00002   0.00004  -0.00117  -0.00112   2.06247
   R14        2.06200   0.00003   0.00008   0.00011   0.00019   2.06219
   R15        2.47080   0.00035   0.00045  -0.00012   0.00032   2.47112
   R16        2.04728   0.00007  -0.00001   0.00031   0.00030   2.04758
   R17        2.59748   0.00039  -0.00005   0.00126   0.00120   2.59867
   R18        2.63075   0.00058   0.00009   0.00027   0.00030   2.63105
   R19        2.52486   0.00028   0.00094   0.00086   0.00179   2.52665
   R20        2.05418   0.00023  -0.00018   0.00046   0.00029   2.05447
    A1        1.71407   0.00342   0.00338   0.01398   0.01737   1.73144
    A2        1.86921  -0.00153  -0.00094  -0.00482  -0.00576   1.86346
    A3        1.86712  -0.00137  -0.00089  -0.00635  -0.00723   1.85989
    A4        1.91834  -0.00029  -0.00042  -0.00082  -0.00123   1.91712
    A5        1.91189   0.00095  -0.00027  -0.00054  -0.00080   1.91108
    A6        2.13463  -0.00044  -0.00018   0.00114   0.00097   2.13560
    A7        1.94379   0.00156   0.00153   0.00672   0.00772   1.95151
    A8        2.05840  -0.00109  -0.00111  -0.00823  -0.00985   2.04855
    A9        2.28013  -0.00048  -0.00041  -0.00072  -0.00144   2.27869
   A10        1.93619  -0.00034  -0.00046  -0.00164  -0.00194   1.93425
   A11        2.24102  -0.00001  -0.00026  -0.00108  -0.00138   2.23965
   A12        2.19867  -0.00017   0.00065   0.00058   0.00121   2.19988
   A13        1.84343   0.00017  -0.00038   0.00038   0.00000   1.84343
   A14        2.20254   0.00008  -0.00020  -0.00057  -0.00086   2.20168
   A15        1.83960  -0.00063   0.00093  -0.00129  -0.00040   1.83921
   A16        2.24070   0.00055  -0.00073   0.00127   0.00045   2.24114
   A17        1.92569   0.00044  -0.00072   0.01018   0.00946   1.93515
   A18        1.90939   0.00023  -0.00034  -0.00780  -0.00813   1.90126
   A19        1.90006   0.00006   0.00029   0.00062   0.00089   1.90095
   A20        1.90508  -0.00042   0.00056  -0.00267  -0.00208   1.90300
   A21        1.91250  -0.00020   0.00008   0.00024   0.00030   1.91280
   A22        1.91106  -0.00011   0.00012  -0.00063  -0.00053   1.91054
   A23        2.00358   0.00118  -0.00120   0.00243   0.00124   2.00482
   A24        2.10356  -0.00077   0.00093  -0.00266  -0.00173   2.10183
   A25        2.17603  -0.00041   0.00026   0.00022   0.00048   2.17651
   A26        1.81007  -0.00033   0.00051  -0.00068  -0.00019   1.80988
   A27        1.92808  -0.00039   0.00014  -0.00085  -0.00069   1.92739
   A28        2.01970   0.00046   0.00039   0.00098   0.00132   2.02102
   A29        2.33540  -0.00007  -0.00053  -0.00012  -0.00063   2.33477
   A30        2.09017   0.00028  -0.00005   0.00043   0.00039   2.09056
   A31        2.14257  -0.00017  -0.00001  -0.00049  -0.00051   2.14207
   A32        2.05044  -0.00011   0.00006   0.00005   0.00011   2.05056
   A33        2.04145   0.00025  -0.00012   0.00027   0.00029   2.04174
    D1       -2.86353   0.00043  -0.00642   0.37344   0.36702  -2.49651
    D2        0.31800   0.00041  -0.00734   0.42480   0.41744   0.73544
    D3       -0.91566   0.00018  -0.00605   0.37412   0.36808  -0.54759
    D4        2.26586   0.00016  -0.00697   0.42548   0.41851   2.68437
    D5        1.47601   0.00016  -0.00689   0.37447   0.36759   1.84360
    D6       -1.62564   0.00014  -0.00781   0.42583   0.41801  -1.20763
    D7       -3.08925  -0.00032  -0.00121   0.05623   0.05526  -3.03399
    D8        0.00584  -0.00031  -0.00013  -0.00376  -0.00392   0.00192
    D9        3.09570   0.00028   0.00106  -0.05082  -0.04951   3.04618
   D10        0.00312   0.00021  -0.00007   0.01208   0.01197   0.01509
   D11       -3.13810   0.00012  -0.00008   0.00539   0.00534  -3.13276
   D12       -0.01044   0.00020   0.00024  -0.00716  -0.00687  -0.01731
   D13       -0.03423   0.00010   0.00079  -0.02973  -0.02891  -0.06314
   D14        3.13377   0.00007   0.00018  -0.00733  -0.00711   3.12665
   D15        3.11907   0.00003   0.00052  -0.01918  -0.01867   3.10040
   D16        0.00388   0.00000  -0.00009   0.00321   0.00312   0.00700
   D17       -3.13237  -0.00008  -0.00021   0.00860   0.00838  -3.12400
   D18        0.00631  -0.00002  -0.00015   0.00878   0.00862   0.01493
   D19       -0.00211  -0.00001   0.00005  -0.00163  -0.00158  -0.00369
   D20        3.13656   0.00004   0.00012  -0.00145  -0.00133   3.13523
   D21       -1.23900   0.00002   0.00438  -0.19873  -0.19433  -1.43333
   D22        0.85708  -0.00008   0.00443  -0.20063  -0.19621   0.66087
   D23        2.94484  -0.00005   0.00454  -0.20565  -0.20112   2.74372
   D24        1.87011   0.00003   0.00513  -0.22633  -0.22117   1.64894
   D25       -2.31699  -0.00007   0.00518  -0.22823  -0.22305  -2.54004
   D26       -0.22923  -0.00004   0.00529  -0.23325  -0.22796  -0.45719
   D27       -0.00479   0.00000   0.00011  -0.00412  -0.00400  -0.00879
   D28        3.14010  -0.00001   0.00003  -0.00088  -0.00085   3.13924
   D29       -3.11920  -0.00002  -0.00052   0.01898   0.01848  -3.10072
   D30        0.02569  -0.00002  -0.00059   0.02222   0.02163   0.04732
   D31        0.00339  -0.00001  -0.00008   0.00302   0.00294   0.00632
   D32        3.14152   0.00000   0.00000  -0.00038  -0.00037   3.14115
   D33       -0.00068   0.00001   0.00002  -0.00076  -0.00074  -0.00142
   D34       -3.13863  -0.00006  -0.00007  -0.00099  -0.00106  -3.13969
   D35        0.00374  -0.00010  -0.00009   0.00029   0.00017   0.00391
   D36       -3.13904  -0.00006  -0.00006  -0.00188  -0.00193  -3.14097
   D37        3.14155  -0.00003   0.00000   0.00053   0.00050  -3.14114
   D38       -0.00123   0.00001   0.00003  -0.00165  -0.00161  -0.00284
   D39       -0.00790   0.00003   0.00018  -0.00925  -0.00901  -0.01691
   D40        3.13481  -0.00001   0.00016  -0.00719  -0.00701   3.12780
         Item               Value     Threshold  Converged?
 Maximum Force            0.003492     0.000450     NO 
 RMS     Force            0.000833     0.000300     NO 
 Maximum Displacement     0.860615     0.001800     NO 
 RMS     Displacement     0.188815     0.001200     NO 
 Predicted change in Energy=-1.526367D-03
 GradGradGradGradGradGradGradGradGradGradGradGradGradGradGradGradGradGrad

                          Input orientation:                          
 ---------------------------------------------------------------------
 Center     Atomic      Atomic             Coordinates (Angstroms)
 Number     Number       Type             X           Y           Z
 ---------------------------------------------------------------------
      1          9           0        4.242343    0.407978   -0.217050
      2         16           0        3.157124    0.539444    0.946540
      3          6           0        1.718338   -0.125409    0.076578
      4          7           0        0.602896    0.515127    0.406378
      5          6           0       -0.455547   -0.069918   -0.138528
      6          7           0       -1.767470    0.294564   -0.042006
      7          6           0       -2.294835    1.381542    0.753831
      8          6           0       -2.456801   -0.621105   -0.800026
      9          7           0       -1.712717   -1.527402   -1.378762
     10          6           0       -0.437153   -1.206021   -0.977872
     11          6           0        0.817979   -1.754244   -1.228025
     12          7           0        1.905028   -1.202686   -0.678663
     13          8           0        2.974738    1.949328    1.187944
     14          8           0        3.557150   -0.378187    1.988466
     15          1           0       -2.425088    1.074389    1.795707
     16          1           0       -1.597350    2.220079    0.714496
     17          1           0       -3.256646    1.688828    0.339888
     18          1           0       -3.534694   -0.558065   -0.890684
     19          1           0        0.962707   -2.628240   -1.858213
 ---------------------------------------------------------------------
                    Distance matrix (angstroms):
                    1          2          3          4          5
     1  F    0.000000
     2  S    1.596535   0.000000
     3  C    2.596406   1.808028   0.000000
     4  N    3.694011   2.610832   1.327880   0.000000
     5  C    4.722787   3.821006   2.185206   1.326463   0.000000
     6  N    6.013432   5.028799   3.513018   2.422464   1.365030
     7  C    6.680205   5.519975   4.339946   3.044379   2.507194
     8  C    6.802750   5.992789   4.294873   3.479682   2.178625
     9  N    6.368517   5.778774   3.981926   3.566611   2.289741
    10  C    5.008146   4.434956   2.631678   2.441353   1.412645
    11  C    4.174152   3.932090   2.272827   2.804921   2.376095
    12  N    2.875825   2.691476   1.328822   2.413243   2.673429
    13  O    2.440613   1.441983   2.667997   2.879828   4.195681
    14  O    2.439641   1.444880   2.664665   3.468231   4.552018
    15  H    6.996422   5.671714   4.643586   3.378120   2.988276
    16  H    6.184942   5.048109   4.111209   2.800514   2.697305
    17  H    7.627949   6.544124   5.302005   4.034608   3.341890
    18  H    7.865706   7.025692   5.358837   4.466964   3.207051
    19  H    4.761098   4.766165   3.252470   3.890835   3.393195
                    6          7          8          9         10
     6  N    0.000000
     7  C    1.446718   0.000000
     8  C    1.374126   2.539941   0.000000
     9  N    2.260414   3.653596   1.307658   0.000000
    10  C    2.212995   3.625640   2.110151   1.375159   0.000000
    11  C    3.505539   4.842574   3.491615   2.545309   1.392293
    12  N    4.016756   5.135087   4.402104   3.699142   2.361217
    13  O    5.171031   5.317822   6.329358   6.375568   5.127181
    14  O    5.738204   6.234316   6.633423   6.358491   5.043701
    15  H    2.101851   1.093990   3.100570   4.165817   4.104253
    16  H    2.075776   1.091411   3.332381   4.294025   3.993536
    17  H    2.075442   1.091262   2.697211   3.960001   4.250434
    18  H    2.137829   2.829092   1.083534   2.120715   3.165788
    19  H    4.392637   5.789016   4.103826   2.932510   2.181127
                   11         12         13         14         15
    11  C    0.000000
    12  N    1.337045   0.000000
    13  O    4.919854   3.816241   0.000000
    14  O    4.443243   3.243900   2.529302   0.000000
    15  H    5.259430   5.482470   5.503909   6.159082   0.000000
    16  H    5.040084   5.091450   4.604503   5.911248   1.779543
    17  H    5.560186   6.003430   6.294220   7.308774   1.785618
    18  H    4.526633   5.481885   7.278765   7.656116   3.333591
    19  H    1.087176   2.076418   5.855039   5.156628   6.207878
                   16         17         18         19
    16  H    0.000000
    17  H    1.782084   0.000000
    18  H    3.748066   2.576848   0.000000
    19  H    6.056313   6.424303   5.044636   0.000000
 Stoichiometry    C6H5FN4O2S
 Framework group  C1[X(C6H5FN4O2S)]
 Deg. of freedom    51
 Full point group                 C1      NOp   1
 Largest Abelian subgroup         C1      NOp   1
 Largest concise Abelian subgroup C1      NOp   1
                         Standard orientation:                         
 ---------------------------------------------------------------------
 Center     Atomic      Atomic             Coordinates (Angstroms)
 Number     Number       Type             X           Y           Z
 ---------------------------------------------------------------------
      1          9           0       -3.135819    0.683593   -0.870433
      2         16           0       -2.384388   -0.348492    0.088253
      3          6           0       -0.703501    0.304030   -0.045157
      4          7           0        0.203421   -0.665888   -0.049398
      5          6           0        1.430776   -0.164002   -0.014561
      6          7           0        2.619781   -0.834502   -0.016140
      7          6           0        2.789535   -2.270856    0.016443
      8          6           0        3.587908    0.140336    0.009215
      9          7           0        3.133568    1.366506    0.016375
     10          6           0        1.767668    1.207774    0.002822
     11          6           0        0.694859    2.095214   -0.000501
     12          7           0       -0.556447    1.624340   -0.014744
     13          8           0       -2.460279   -1.639591   -0.549413
     14          8           0       -2.888360   -0.113798    1.421898
     15          1           0        2.711504   -2.649513    1.039842
     16          1           0        2.012224   -2.733272   -0.594406
     17          1           0        3.770004   -2.520580   -0.392425
     18          1           0        4.637490   -0.128703    0.015671
     19          1           0        0.824758    3.174539    0.011080
 ---------------------------------------------------------------------
 Rotational constants (GHZ):           1.4320538           0.4011825           0.3356494
 Standard basis: 6-31G(d) (6D, 7F)
 There are   224 symmetry adapted cartesian basis functions of A   symmetry.
 There are   224 symmetry adapted basis functions of A   symmetry.
   224 basis functions,   436 primitive gaussians,   224 cartesian basis functions
    55 alpha electrons       55 beta electrons
       nuclear repulsion energy      1037.3485752245 Hartrees.
 NAtoms=   19 NActive=   19 NUniq=   19 SFac= 1.00D+00 NAtFMM=   60 NAOKFM=F Big=F
 Integral buffers will be    131072 words long.
 Raffenetti 2 integral format.
 Two-electron integral symmetry is turned on.
 R6APFD:  NTU= -4 IXU= 1 FactS= 1.050
 Nuclear repulsion after empirical dispersion term =     1037.3324969823 Hartrees.
 One-electron integrals computed using PRISM.
 NBasis=   224 RedAO= T EigKep=  8.26D-04  NBF=   224
 NBsUse=   224 1.00D-06 EigRej= -1.00D+00 NBFU=   224
 Initial guess from the checkpoint file:  "UMTDQZXIDLMQBD-UHFFFAOYSA-N_conf_0_0.chk"
 B after Tr=    -0.000000   -0.000000    0.000000
         Rot=    0.998774    0.049381    0.003337   -0.000224 Ang=   5.67 deg.
 ExpMin= 1.17D-01 ExpMax= 2.19D+04 ExpMxC= 3.30D+03 IAcc=2 IRadAn=         4 AccDes= 0.00D+00
 Harris functional with IExCor= 3731 and IRadAn=       4 diagonalized for initial guess.
 HarFok:  IExCor= 3731 AccDes= 0.00D+00 IRadAn=         4 IDoV= 1 UseB2=F ITyADJ=14
 ICtDFT=  3500011 ScaDFX=  1.000000  1.000000  1.000000  1.000000
 FoFCou: FMM=F IPFlag=           0 FMFlag=      100000 FMFlg1=           0
         NFxFlg=           0 DoJE=T BraDBF=F KetDBF=T FulRan=T
         wScrn=  0.000000 ICntrl=       500 IOpCl=  0 I1Cent=   200000004 NGrid=           0
         NMat0=    1 NMatS0=      1 NMatT0=    0 NMatD0=    1 NMtDS0=    0 NMtDT0=    0
 Petite list used in FoFCou.
 Keep R1 ints in memory in canonical form, NReq=323229189.
 Requested convergence on RMS density matrix=1.00D-08 within  32 cycles.
 Requested convergence on MAX density matrix=1.00D-06.
 Requested convergence on             energy=1.00D-06.
 No special actions if energy rises.
 Integral accuracy reduced to 1.0D-05 until final iterations.
 Initial convergence to 1.0D-05 achieved.  Increase integral accuracy.
 SCF Done:  E(RAPFD) =  -1098.43036901     A.U. after   15 cycles
            NFock= 15  Conv=0.51D-08     -V/T= 2.0066
 QCSCF skips out because SCF is already converged.
 R6APFD:  NTU= -4 IXU= 1 FactS= 1.050
 Calling FoFJK, ICntrl=      2127 FMM=F ISym2X=0 I1Cent= 0 IOpClX= 0 NMat=1 NMatS=1 NMatT=0.
 ***** Axes restored to original set *****
 -------------------------------------------------------------------
 Center     Atomic                   Forces (Hartrees/Bohr)
 Number     Number              X              Y              Z
 -------------------------------------------------------------------
      1        9           0.000294580   -0.000718599   -0.002424686
      2       16           0.001387620   -0.000197347    0.003431315
      3        6          -0.003437715    0.001003966    0.002133719
      4        7          -0.000597225   -0.002093977   -0.000720202
      5        6           0.000538380    0.001394939   -0.001206825
      6        7          -0.000085159   -0.000156280    0.000811854
      7        6          -0.000685107    0.000424035   -0.000290575
      8        6           0.000728906    0.000217763    0.000234271
      9        7           0.000113517   -0.000555487   -0.000104047
     10        6          -0.000564486   -0.000381034   -0.000422891
     11        6           0.002211851    0.000621805    0.000205881
     12        7           0.000151010    0.000564571    0.000584565
     13        8           0.000241787   -0.000753468   -0.000606404
     14        8          -0.000520975    0.000560590   -0.001660353
     15        1           0.000128895   -0.000142496   -0.000210813
     16        1           0.000202333   -0.000073211    0.000033378
     17        1          -0.000215209    0.000384104    0.000216892
[...]
    18  H    0.000000   0.000000   0.000598  -0.000090   0.000791   0.485269
    19  H    0.000000   0.000001  -0.000000   0.000000  -0.000000   0.000000
              19
     1  F    0.000002
     2  S   -0.000085
     3  C    0.005587
     4  N    0.000133
     5  C    0.004437
     6  N   -0.000063
     7  C    0.000001
     8  C   -0.000010
     9  N   -0.001083
    10  C   -0.034052
    11  C    0.365371
    12  N   -0.042867
    13  O    0.000000
    14  O    0.000001
    15  H   -0.000000
    16  H    0.000000
    17  H   -0.000000
    18  H    0.000000
    19  H    0.466390
 Mulliken charges:
               1
     1  F   -0.301406
     2  S    1.256904
     3  C    0.134670
     4  N   -0.497184
     5  C    0.585688
     6  N   -0.509757
     7  C   -0.406826
     8  C    0.194439
     9  N   -0.481453
    10  C    0.183794
    11  C   -0.025297
    12  N   -0.324919
    13  O   -0.460785
    14  O   -0.463660
    15  H    0.217096
    16  H    0.242246
    17  H    0.216028
    18  H    0.204184
    19  H    0.236237
 Sum of Mulliken charges =  -0.00000
 Mulliken charges with hydrogens summed into heavy atoms:
               1
     1  F   -0.301406
     2  S    1.256904
     3  C    0.134670
     4  N   -0.497184
     5  C    0.585688
     6  N   -0.509757
     7  C    0.268544
     8  C    0.398622
     9  N   -0.481453
    10  C    0.183794
    11  C    0.210941
    12  N   -0.324919
    13  O   -0.460785
    14  O   -0.463660
 Electronic spatial extent (au):  <R**2>=           3101.8025
 Charge=              0.0000 electrons
 Dipole moment (field-independent basis, Debye):
    X=              6.5693    Y=             -1.2150    Z=             -0.6325  Tot=              6.7105
 Quadrupole moment (field-independent basis, Debye-Ang):
   XX=            -85.0037   YY=            -80.1418   ZZ=            -86.9868
   XY=            -13.3231   XZ=              2.7404   YZ=             -0.9669
 Traceless Quadrupole moment (field-independent basis, Debye-Ang):
   XX=             -0.9596   YY=              3.9023   ZZ=             -2.9427
   XY=            -13.3231   XZ=              2.7404   YZ=             -0.9669
 Octapole moment (field-independent basis, Debye-Ang**2):
  XXX=             38.7922  YYY=             -0.0567  ZZZ=             -7.2346  XYY=              8.1652
  XXY=            -41.1507  XXZ=            -12.2377  XZZ=             -7.0098  YZZ=             -6.2390
  YYZ=             -0.8781  XYZ=              2.5870
 Hexadecapole moment (field-independent basis, Debye-Ang**3):
 XXXX=          -2695.1743 YYYY=           -749.7338 ZZZZ=           -177.9512 XXXY=           -151.0045
 XXXZ=             49.9443 YYYX=            -69.9788 YYYZ=             -3.3911 ZZZX=             22.2450
 ZZZY=             -3.2076 XXYY=           -621.8313 XXZZ=           -527.2940 YYZZ=           -169.0226
 XXYZ=             -6.6386 YYXZ=              3.5048 ZZXY=             -6.6185
 N-N= 1.037276391745D+03 E-N=-4.656699750684D+03  KE= 1.091257714208D+03
 Evaluate density.
 Using the total density.
 Monte-Carlo method of calculating molar volume:
 based on  0.001 e/bohr**3 density envelope.
 Number of points per bohr**3 =   20 CutOff= 1.00D-04
 Using the CI density.
 There are       425 points.  Will hold       425 in memory.
 LenV=   805159068 MDV=   805306368.
 Box volume = 9613.041 fraction occupied=0.169
 Integrated density= 1.0001338790602236D+02 error=-9.9866120939776408D+00
 Molar volume = 1628.562 bohr**3/mol (145.331 cm**3/mol)
 Recommended a0 for SCRF calculation =  4.75 angstrom (  8.98 bohr)
 ******************************Gaussian NBO Version 3.1******************************
             N A T U R A L   A T O M I C   O R B I T A L   A N D
          N A T U R A L   B O N D   O R B I T A L   A N A L Y S I S
 ******************************Gaussian NBO Version 3.1******************************
       /RESON  / : Allow strongly delocalized NBO set

 Analyzing the CI density

 Job title: UMTDQZXIDLMQBD-UHFFFAOYSA-N_conf_0                              

 Storage needed:    151854 in NPA ( 805304373 available)


 NATURAL POPULATIONS:  Natural atomic orbital occupancies 
                                                          
   NAO  Atom  No  lang   Type(AO)    Occupancy
 --------------------------------------------
     1    F    1  S      Cor( 1S)     1.99997
     2    F    1  S      Val( 2S)     1.92761
     3    F    1  S      Ryd( 3S)     0.00231
     4    F    1  S      Ryd( 4S)     0.00012
     5    F    1  px     Val( 2p)     1.91989
     6    F    1  px     Ryd( 3p)     0.00021
     7    F    1  py     Val( 2p)     1.88840
     8    F    1  py     Ryd( 3p)     0.00022
     9    F    1  pz     Val( 2p)     1.75475
    10    F    1  pz     Ryd( 3p)     0.00037
    11    F    1  dxy    Ryd( 3d)     0.00071
    12    F    1  dxz    Ryd( 3d)     0.00159
    13    F    1  dyz    Ryd( 3d)     0.00169
    14    F    1  dx2y2  Ryd( 3d)     0.00070
    15    F    1  dz2    Ryd( 3d)     0.00196
 
    16    S    2  S      Cor( 1S)     2.00000
    17    S    2  S      Cor( 2S)     1.99919
    18    S    2  S      Val( 3S)     1.04534
    19    S    2  S      Ryd( 4S)     0.00455
    20    S    2  S      Ryd( 5S)     0.00026
    21    S    2  px     Cor( 2p)     1.99991
    22    S    2  px     Val( 3p)     0.89188
    23    S    2  px     Ryd( 4p)     0.00947
    24    S    2  py     Cor( 2p)     1.99989
    25    S    2  py     Val( 3p)     0.71999
    26    S    2  py     Ryd( 4p)     0.01254
    27    S    2  pz     Cor( 2p)     1.99988
    28    S    2  pz     Val( 3p)     0.73840
    29    S    2  pz     Ryd( 4p)     0.00930
    30    S    2  dxy    Ryd( 3d)     0.03567
    31    S    2  dxz    Ryd( 3d)     0.02352
    32    S    2  dyz    Ryd( 3d)     0.04060
    33    S    2  dx2y2  Ryd( 3d)     0.03418
    34    S    2  dz2    Ryd( 3d)     0.03701
 
    35    C    3  S      Cor( 1S)     1.99906
    36    C    3  S      Val( 2S)     0.88976
    37    C    3  S      Ryd( 3S)     0.00428
    38    C    3  S      Ryd( 4S)     0.00025
    39    C    3  px     Val( 2p)     1.02765
    40    C    3  px     Ryd( 3p)     0.01064
    41    C    3  py     Val( 2p)     0.88564
    42    C    3  py     Ryd( 3p)     0.01684
    43    C    3  pz     Val( 2p)     1.11914
    44    C    3  pz     Ryd( 3p)     0.00510
    45    C    3  dxy    Ryd( 3d)     0.00136
    46    C    3  dxz    Ryd( 3d)     0.00108
    47    C    3  dyz    Ryd( 3d)     0.00177
    48    C    3  dx2y2  Ryd( 3d)     0.00172
    49    C    3  dz2    Ryd( 3d)     0.00040
 
    50    N    4  S      Cor( 1S)     1.99915
    51    N    4  S      Val( 2S)     1.33751
    52    N    4  S      Ryd( 3S)     0.00097
    53    N    4  S      Ryd( 4S)     0.00001
    54    N    4  px     Val( 2p)     1.22957
    55    N    4  px     Ryd( 3p)     0.00336
    56    N    4  py     Val( 2p)     1.38299
    57    N    4  py     Ryd( 3p)     0.00433
    58    N    4  pz     Val( 2p)     1.45333
    59    N    4  pz     Ryd( 3p)     0.00432
    60    N    4  dxy    Ryd( 3d)     0.00304
    61    N    4  dxz    Ryd( 3d)     0.00057
    62    N    4  dyz    Ryd( 3d)     0.00371
    63    N    4  dx2y2  Ryd( 3d)     0.00259
    64    N    4  dz2    Ryd( 3d)     0.00183
 
    65    C    5  S      Cor( 1S)     1.99899
    66    C    5  S      Val( 2S)     0.79307
    67    C    5  S      Ryd( 3S)     0.00388
    68    C    5  S      Ryd( 4S)     0.00021
    69    C    5  px     Val( 2p)     0.85456
    70    C    5  px     Ryd( 3p)     0.00371
    71    C    5  py     Val( 2p)     0.98013
    72    C    5  py     Ryd( 3p)     0.01005
    73    C    5  pz     Val( 2p)     0.97333
    74    C    5  pz     Ryd( 3p)     0.00130
    75    C    5  dxy    Ryd( 3d)     0.00147
    76    C    5  dxz    Ryd( 3d)     0.00250
    77    C    5  dyz    Ryd( 3d)     0.00111
    78    C    5  dx2y2  Ryd( 3d)     0.00109
    79    C    5  dz2    Ryd( 3d)     0.00035
 
    80    N    6  S      Cor( 1S)     1.99926
    81    N    6  S      Val( 2S)     1.19080
    82    N    6  S      Ryd( 3S)     0.00135
    83    N    6  S      Ryd( 4S)     0.00002
    84    N    6  px     Val( 2p)     1.30317
    85    N    6  px     Ryd( 3p)     0.00214
    86    N    6  py     Val( 2p)     1.32073
    87    N    6  py     Ryd( 3p)     0.00226
    88    N    6  pz     Val( 2p)     1.56181
    89    N    6  pz     Ryd( 3p)     0.00268
    90    N    6  dxy    Ryd( 3d)     0.00085
    91    N    6  dxz    Ryd( 3d)     0.00093
    92    N    6  dyz    Ryd( 3d)     0.00088
    93    N    6  dx2y2  Ryd( 3d)     0.00065
    94    N    6  dz2    Ryd( 3d)     0.00057
 
    95    C    7  S      Cor( 1S)     1.99945
    96    C    7  S      Val( 2S)     1.09611
    97    C    7  S      Ryd( 3S)     0.00116
    98    C    7  S      Ryd( 4S)     0.00001
    99    C    7  px     Val( 2p)     1.28094
   100    C    7  px     Ryd( 3p)     0.00348
   101    C    7  py     Val( 2p)     0.84948
   102    C    7  py     Ryd( 3p)     0.00225
   103    C    7  pz     Val( 2p)     1.26253
   104    C    7  pz     Ryd( 3p)     0.00143
   105    C    7  dxy    Ryd( 3d)     0.00055
   106    C    7  dxz    Ryd( 3d)     0.00087
   107    C    7  dyz    Ryd( 3d)     0.00086
   108    C    7  dx2y2  Ryd( 3d)     0.00116
   109    C    7  dz2    Ryd( 3d)     0.00090
 
   110    C    8  S      Cor( 1S)     1.99934
   111    C    8  S      Val( 2S)     0.89255
   112    C    8  S      Ryd( 3S)     0.00256
   113    C    8  S      Ryd( 4S)     0.00012
   114    C    8  px     Val( 2p)     1.06660
   115    C    8  px     Ryd( 3p)     0.00479
   116    C    8  py     Val( 2p)     0.81233
   117    C    8  py     Ryd( 3p)     0.01071
   118    C    8  pz     Val( 2p)     1.03479
   119    C    8  pz     Ryd( 3p)     0.00404
   120    C    8  dxy    Ryd( 3d)     0.00175
   121    C    8  dxz    Ryd( 3d)     0.00083
   122    C    8  dyz    Ryd( 3d)     0.00150
   123    C    8  dx2y2  Ryd( 3d)     0.00137
   124    C    8  dz2    Ryd( 3d)     0.00047
 
   125    N    9  S      Cor( 1S)     1.99930
   126    N    9  S      Val( 2S)     1.37762
   127    N    9  S      Ryd( 3S)     0.00044
   128    N    9  S      Ryd( 4S)     0.00001
   129    N    9  px     Val( 2p)     1.26559
   130    N    9  px     Ryd( 3p)     0.00374
   131    N    9  py     Val( 2p)     1.46103
   132    N    9  py     Ryd( 3p)     0.00361
   133    N    9  pz     Val( 2p)     1.26763
   134    N    9  pz     Ryd( 3p)     0.00076
   135    N    9  dxy    Ryd( 3d)     0.00275
   136    N    9  dxz    Ryd( 3d)     0.00110
   137    N    9  dyz    Ryd( 3d)     0.00345
   138    N    9  dx2y2  Ryd( 3d)     0.00316
   139    N    9  dz2    Ryd( 3d)     0.00224
 
   140    C   10  S      Cor( 1S)     1.99888
   141    C   10  S      Val( 2S)     0.85788
   142    C   10  S      Ryd( 3S)     0.00294
   143    C   10  S      Ryd( 4S)     0.00010
   144    C   10  px     Val( 2p)     0.97178
   145    C   10  px     Ryd( 3p)     0.00447
   146    C   10  py     Val( 2p)     1.00313
   147    C   10  py     Ryd( 3p)     0.00790
   148    C   10  pz     Val( 2p)     1.12379
   149    C   10  pz     Ryd( 3p)     0.00164
   150    C   10  dxy    Ryd( 3d)     0.00125
   151    C   10  dxz    Ryd( 3d)     0.00155
   152    C   10  dyz    Ryd( 3d)     0.00070
   153    C   10  dx2y2  Ryd( 3d)     0.00074
   154    C   10  dz2    Ryd( 3d)     0.00039
 
   155    C   11  S      Cor( 1S)     1.99908
   156    C   11  S      Val( 2S)     0.93056
   157    C   11  S      Ryd( 3S)     0.00195
   158    C   11  S      Ryd( 4S)     0.00010
   159    C   11  px     Val( 2p)     0.88628
   160    C   11  px     Ryd( 3p)     0.00776
   161    C   11  py     Val( 2p)     1.16752
   162    C   11  py     Ryd( 3p)     0.00444
   163    C   11  pz     Val( 2p)     1.08098
   164    C   11  pz     Ryd( 3p)     0.00628
   165    C   11  dxy    Ryd( 3d)     0.00089
   166    C   11  dxz    Ryd( 3d)     0.00104
   167    C   11  dyz    Ryd( 3d)     0.00053
   168    C   11  dx2y2  Ryd( 3d)     0.00102
   169    C   11  dz2    Ryd( 3d)     0.00042
 
   170    N   12  S      Cor( 1S)     1.99911
   171    N   12  S      Val( 2S)     1.32611
   172    N   12  S      Ryd( 3S)     0.00061
   173    N   12  S      Ryd( 4S)     0.00002
   174    N   12  px     Val( 2p)     1.34834
   175    N   12  px     Ryd( 3p)     0.00542
   176    N   12  py     Val( 2p)     1.24135
   177    N   12  py     Ryd( 3p)     0.00360
   178    N   12  pz     Val( 2p)     1.29557
   179    N   12  pz     Ryd( 3p)     0.00081
   180    N   12  dxy    Ryd( 3d)     0.00155
   181    N   12  dxz    Ryd( 3d)     0.00216
   182    N   12  dyz    Ryd( 3d)     0.00197
   183    N   12  dx2y2  Ryd( 3d)     0.00276
   184    N   12  dz2    Ryd( 3d)     0.00158
 
   185    O   13  S      Cor( 1S)     1.99988
   186    O   13  S      Val( 2S)     1.82850
   187    O   13  S      Ryd( 3S)     0.00116
   188    O   13  S      Ryd( 4S)     0.00002
   189    O   13  px     Val( 2p)     1.76628
   190    O   13  px     Ryd( 3p)     0.00101
   191    O   13  py     Val( 2p)     1.51514
   192    O   13  py     Ryd( 3p)     0.00062
   193    O   13  pz     Val( 2p)     1.74919
   194    O   13  pz     Ryd( 3p)     0.00052
   195    O   13  dxy    Ryd( 3d)     0.00609
   196    O   13  dxz    Ryd( 3d)     0.00028
   197    O   13  dyz    Ryd( 3d)     0.00626
   198    O   13  dx2y2  Ryd( 3d)     0.00597
   199    O   13  dz2    Ryd( 3d)     0.00241
 
   200    O   14  S      Cor( 1S)     1.99988
   201    O   14  S      Val( 2S)     1.83037
   202    O   14  S      Ryd( 3S)     0.00125
   203    O   14  S      Ryd( 4S)     0.00002
   204    O   14  px     Val( 2p)     1.72659
   205    O   14  px     Ryd( 3p)     0.00083
   206    O   14  py     Val( 2p)     1.72025
   207    O   14  py     Ryd( 3p)     0.00068
   208    O   14  pz     Val( 2p)     1.58368
   209    O   14  pz     Ryd( 3p)     0.00070
   210    O   14  dxy    Ryd( 3d)     0.00259
   211    O   14  dxz    Ryd( 3d)     0.00528
   212    O   14  dyz    Ryd( 3d)     0.00499
   213    O   14  dx2y2  Ryd( 3d)     0.00232
   214    O   14  dz2    Ryd( 3d)     0.00581
 
   215    H   15  S      Val( 1S)     0.74511
   216    H   15  S      Ryd( 2S)     0.00086
 
   217    H   16  S      Val( 1S)     0.72532
   218    H   16  S      Ryd( 2S)     0.00096
 
   219    H   17  S      Val( 1S)     0.74499
   220    H   17  S      Ryd( 2S)     0.00083
 
   221    H   18  S      Val( 1S)     0.76062
   222    H   18  S      Ryd( 2S)     0.00047
 
   223    H   19  S      Val( 1S)     0.71934
   224    H   19  S      Ryd( 2S)     0.00070

 WARNING:  1 low occupancy (<1.9990e) core orbital  found on  C    5
           1 low occupancy (<1.9990e) core orbital  found on  C   10


 Summary of Natural Population Analysis:                  
                                                          
                                       Natural Population 
                Natural  -----------------------------------------------
    Atom  No    Charge         Core      Valence    Rydberg      Total
 -----------------------------------------------------------------------
      F    1   -0.50050      1.99997     7.49065    0.00989     9.50050
      S    2    2.39842      9.99887     3.39561    0.20710    13.60158
      C    3    0.03534      1.99906     3.92218    0.04342     5.96466
      N    4   -0.42729      1.99915     5.40339    0.02475     7.42729
      C    5    0.37425      1.99899     3.60110    0.02566     5.62575
      N    6   -0.38812      1.99926     5.37652    0.01233     7.38812
      C    7   -0.50119      1.99945     4.48906    0.01267     6.50119
      C    8    0.16623      1.99934     3.80628    0.02815     5.83377
      N    9   -0.39244      1.99930     5.37188    0.02126     7.39244
      C   10    0.02288      1.99888     3.95657    0.02167     5.97712
      C   11   -0.08885      1.99908     4.06535    0.02442     6.08885
      N   12   -0.23095      1.99911     5.21137    0.02048     7.23095
      O   13   -0.88334      1.99988     6.85912    0.02434     8.88334
      O   14   -0.88524      1.99988     6.86089    0.02447     8.88524
      H   15    0.25403      0.00000     0.74511    0.00086     0.74597
      H   16    0.27372      0.00000     0.72532    0.00096     0.72628
      H   17    0.25418      0.00000     0.74499    0.00083     0.74582
      H   18    0.23891      0.00000     0.76062    0.00047     0.76109
      H   19    0.27996      0.00000     0.71934    0.00070     0.72004
 =======================================================================
   * Total *    0.00000     35.99023    73.50534    0.50443   110.00000

                                 Natural Population      
 --------------------------------------------------------
   Core                      35.99023 ( 99.9728% of  36)
   Valence                   73.50534 ( 99.3315% of  74)
   Natural Minimal Basis    109.49557 ( 99.5414% of 110)
   Natural Rydberg Basis      0.50443 (  0.4586% of 110)
 --------------------------------------------------------

    Atom  No          Natural Electron Configuration
 ----------------------------------------------------------------------------
      F    1      [core]2S( 1.93)2p( 5.56)3d( 0.01)
      S    2      [core]3S( 1.05)3p( 2.35)3d( 0.17)4p( 0.03)
      C    3      [core]2S( 0.89)2p( 3.03)3p( 0.03)3d( 0.01)
      N    4      [core]2S( 1.34)2p( 4.07)3p( 0.01)3d( 0.01)
      C    5      [core]2S( 0.79)2p( 2.81)3p( 0.02)3d( 0.01)
      N    6      [core]2S( 1.19)2p( 4.19)3p( 0.01)
      C    7      [core]2S( 1.10)2p( 3.39)3p( 0.01)
      C    8      [core]2S( 0.89)2p( 2.91)3p( 0.02)3d( 0.01)
      N    9      [core]2S( 1.38)2p( 3.99)3p( 0.01)3d( 0.01)
      C   10      [core]2S( 0.86)2p( 3.10)3p( 0.01)
      C   11      [core]2S( 0.93)2p( 3.13)3p( 0.02)
      N   12      [core]2S( 1.33)2p( 3.89)3p( 0.01)3d( 0.01)
      O   13      [core]2S( 1.83)2p( 5.03)3d( 0.02)
      O   14      [core]2S( 1.83)2p( 5.03)3d( 0.02)
      H   15            1S( 0.75)
      H   16            1S( 0.73)
      H   17            1S( 0.74)
      H   18            1S( 0.76)
      H   19            1S( 0.72)


 NBO analysis skipped by request.
 1\1\GINC-DELLA-R3C1N14\SP\RAPFD TD-FC\6-31G(d)\C6H5F1N4O2S1\SHIVAANI\2
 8-Jan-2024\0\\# TD(NStates=10, Root=1) APFD/6-31G* volume pop=NPA dens
 ity=current Geom=AllCheck Guess=Read\\UMTDQZXIDLMQBD-UHFFFAOYSA-N_conf
 _0\\0,1\F,0,4.0296390299,0.7728201697,-0.4610643393\S,0,3.1972096209,0
 .5502582422,0.8917902881\C,0,1.7003078924,-0.1366759828,0.1437202761\N
 ,0,0.5846247467,0.5085549928,0.4467670227\C,0,-0.4664772904,-0.0841607
 91,-0.1044550891\N,0,-1.7809667587,0.2778149917,-0.0236952624\C,0,-2.3
 145470038,1.4089356939,0.7065251291\C,0,-2.4603027849,-0.6546062898,-0
 .7690947859\N,0,-1.709501971,-1.5749015755,-1.3182396146\C,0,-0.438476
 4922,-1.2412205354,-0.9153033339\C,0,0.8214143406,-1.795016088,-1.1375
 07171\N,0,1.8974589503,-1.2274613182,-0.5905665429\O,0,2.9262417737,1.
 8591471926,1.430740164\O,0,3.8872402526,-0.4743293181,1.6361651842\H,0
 ,-2.9740087382,1.0694260997,1.509567553\H,0,-1.4724362248,1.952394311,
 1.1381090884\H,0,-2.8643073464,2.0708201034,0.0326655255\H,0,-3.537408
 342,-0.5976756905,-0.8715855633\H,0,0.9742963454,-2.6841242077,-1.7445
 385288\\Version=ES64L-G16RevA.03\State=1-A\HF=-1098.4310705\RMSD=6.573
 e-09\Dipole=-2.5864243,0.1508608,-0.5078783\Quadrupole=4.5334089,-1.48
 18756,-3.0515333,-7.0072043,-6.6716902,0.0026183\PG=C01 [X(C6H5F1N4O2S
 1)]\\@


 THE GREAT THING ABOUT BEING IMPERFECT IS THE JOY IT BRINGS OTHERS.
   -- SIGN OUTSIDE LAKE AGASSIZ JR. HIGH SCHOOL, FARGO, N.D.
 Job cpu time:       0 days  0 hours 14 minutes 56.7 seconds.
 Elapsed time:       0 days  0 hours  5 minutes  8.5 seconds.
 File lengths (MBytes):  RWF=    458 Int=      0 D2E=      0 Chk=    268 Scr=      1
 Normal termination of Gaussian 16 at Sun Jan 28 15:29:30 2024.
