 Entering Gaussian System, Link 0=g16
 Input=GNNTZHUFNOYUQO-UHFFFAOYSA-N_conf_0.gjf
 Output=GNNTZHUFNOYUQO-UHFFFAOYSA-N_conf_0.log
 Initial command:
 /opt/export/g16/l1.exe "/tmp/Gau-181607.inp" -scrdir="/tmp/"
 Entering Link 1 = /opt/export/g16/l1.exe PID=    181694.
  
 Copyright (c) 1988,1990,1992,1993,1995,1998,2003,2009,2016,
            Gaussian, Inc.  All Rights Reserved.
  
 This is part of the Gaussian(R) 16 program.  It is based on
 the Gaussian(R) 09 system (copyright 2009, Gaussian, Inc.),
 the Gaussian(R) 03 system (copyright 2003, Gaussian, Inc.),
 the Gaussian(R) 98 system (copyright 1998, Gaussian, Inc.),
 the Gaussian(R) 94 system (copyright 1995, Gaussian, Inc.),
 the Gaussian 92(TM) system (copyright 1992, Gaussian, Inc.),
 the Gaussian 90(TM) system (copyright 1990, Gaussian, Inc.),
 the Gaussian 88(TM) system (copyright 1988, Gaussian, Inc.),
 the Gaussian 86(TM) system (copyright 1986, Carnegie Mellon
 University), and the Gaussian 82(TM) system (copyright 1983,
 Carnegie Mellon University). Gaussian is a federally registered
 trademark of Gaussian, Inc.
  
 This software contains proprietary and confidential information,
 including trade secrets, belonging to Gaussian, Inc.
  
 This software is provided under written license and may be
 used, copied, transmitted, or stored only in accord with that
 written license.
  
 The following legend is applicable only to US Government
 contracts under FAR:
  
                    RESTRICTED RIGHTS LEGEND
  
 Use, reproduction and disclosure by the US Government is
 subject to restrictions as set forth in subparagraphs (a)
 and (c) of the Commercial Computer Software - Restricted
 Rights clause in FAR 52.227-19.
  
 Gaussian, Inc.
 340 Quinnipiac St., Bldg. 40, Wallingford CT 06492
  
  
 ---------------------------------------------------------------
 Warning -- This program may not be used in any manner that
 competes with the business of Gaussian, Inc. or will provide
 assistance to any competitor of Gaussian, Inc.  The licensee
 of this program is prohibited from giving any competitor of
 Gaussian, Inc. access to this program.  By using this program,
 the user acknowledges that Gaussian, Inc. is engaged in the
 business of creating and licensing software in the field of
 computational chemistry and represents and warrants to the
 licensee that it is not a competitor of Gaussian, Inc. and that
 it will not use this program in any manner prohibited above.
 ---------------------------------------------------------------
  

 Cite this work as:
 Gaussian 16, Revision A.03,
 M. J. Frisch, G. W. Trucks, H. B. Schlegel, G. E. Scuseria, 
 M. A. Robb, J. R. Cheeseman, G. Scalmani, V. Barone, 
 G. A. Petersson, H. Nakatsuji, X. Li, M. Caricato, A. V. Marenich, 
 J. Bloino, B. G. Janesko, R. Gomperts, B. Mennucci, H. P. Hratchian, 
 J. V. Ortiz, A. F. Izmaylov, J. L. Sonnenberg, D. Williams-Young, 
 F. Ding, F. Lipparini, F. Egidi, J. Goings, B. Peng, A. Petrone, 
 T. Henderson, D. Ranasinghe, V. G. Zakrzewski, J. Gao, N. Rega, 
 G. Zheng, W. Liang, M. Hada, M. Ehara, K. Toyota, R. Fukuda, 
 J. Hasegawa, M. Ishida, T. Nakajima, Y. Honda, O. Kitao, H. Nakai, 
 T. Vreven, K. Throssell, J. A. Montgomery, Jr., J. E. Peralta, 
 F. Ogliaro, M. J. Bearpark, J. J. Heyd, E. N. Brothers, K. N. Kudin, 
 V. N. Staroverov, T. A. Keith, R. Kobayashi, J. Normand, 
 K. Raghavachari, A. P. Rendell, J. C. Burant, S. S. Iyengar, 
 J. Tomasi, M. Cossi, J. M. Millam, M. Klene, C. Adamo, R. Cammi, 
 J. W. Ochterski, R. L. Martin, K. Morokuma, O. Farkas, 
 J. B. Foresman, and D. J. Fox, Gaussian, Inc., Wallingford CT, 2016.
 
 ******************************************
 Gaussian 16:  ES64L-G16RevA.03 25-Dec-2016
                13-Feb-2024 
 ******************************************
 %nprocshared=3
 Will use up to    3 processors via shared memory.
 %mem=6GB
 %Chk=GNNTZHUFNOYUQO-UHFFFAOYSA-N_conf_0_0.chk
 --------------------------------
 # opt=CalcFc APFD/6-31G* scf=xqc
 --------------------------------
 1/10=4,18=20,19=15,26=3,38=1/1,3;
 2/9=110,12=2,17=6,18=5,40=1/2;
 3/5=1,6=6,7=1,11=2,25=1,30=1,71=2,74=-44,140=1/1,2,3;
 4//1;
 5/5=2,8=3,13=1,38=5/2,8;
 8/6=4,10=90,11=11/1;
 11/6=1,8=1,9=11,15=111,16=1/1,2,10;
 10/6=1,13=1/2;
 6/7=2,8=2,9=2,10=2,28=1/1;
 7/10=1,18=20,25=1/1,2,3,16;
 1/10=4,18=20,19=15,26=3/3(2);
 2/9=110/2;
 99//99;
 2/9=110/2;
 3/5=1,6=6,7=1,11=2,25=1,30=1,71=1,74=-44/1,2,3;
 4/5=5,16=3,69=1/1;
 5/5=2,8=3,13=1,38=5/2,8;
 7//1,2,3,16;
 1/18=20,19=15,26=3/3(-5);
 2/9=110/2;
 6/7=2,8=2,9=2,10=2,19=2,28=1/1;
 99/9=1/99;
 ----------------------------------
 GNNTZHUFNOYUQO-UHFFFAOYSA-N_conf_0
 ----------------------------------
 Symbolic Z-matrix:
 Charge =  0 Multiplicity = 1
 O                     3.88958  -0.42431   1.44907 
 S                     3.41469   0.68945   0.65134 
 C                     1.77375   0.32174   0.06747 
 N                     0.8235    0.28468   1.03848 
 C                    -0.43308   0.01168   0.65525 
 C                    -1.4402   -0.03775   1.60882 
 C                    -2.76525  -0.31784   1.26257 
 C                    -3.09924  -0.5552   -0.06601 
 C                    -2.10823  -0.51199  -1.04478 
 C                    -0.77644  -0.23028  -0.69528 
 C                     0.24172  -0.18051  -1.66081 
 C                     1.54789   0.10101  -1.27914 
 F                     4.34742   0.67985  -0.64407 
 O                     3.45114   2.06281   1.11494 
 H                    -1.1882    0.14667   2.65089 
 H                    -3.53095  -0.34923   2.03376 
 H                    -4.12868  -0.7734   -0.33933 
 H                    -2.38145  -0.69934  -2.08085 
 H                     0.01701  -0.36105  -2.70981 
 H                     2.34502   0.14301  -2.01252 
 

 GradGradGradGradGradGradGradGradGradGradGradGradGradGradGradGradGradGrad
 Berny optimization.
 Initialization pass.
                           ----------------------------
                           !    Initial Parameters    !
                           ! (Angstroms and Degrees)  !
 --------------------------                            --------------------------
 ! Name  Definition              Value          Derivative Info.                !
 --------------------------------------------------------------------------------
 ! R1    R(1,2)                  1.45           calculate D2E/DX2 analytically  !
 ! R2    R(2,3)                  1.7801         calculate D2E/DX2 analytically  !
 ! R3    R(2,13)                 1.5963         calculate D2E/DX2 analytically  !
 ! R4    R(2,14)                 1.45           calculate D2E/DX2 analytically  !
 ! R5    R(3,4)                  1.3591         calculate D2E/DX2 analytically  !
 ! R6    R(3,12)                 1.3832         calculate D2E/DX2 analytically  !
 ! R7    R(4,5)                  1.3418         calculate D2E/DX2 analytically  !
 ! R8    R(5,6)                  1.3878         calculate D2E/DX2 analytically  !
 ! R9    R(5,10)                 1.4143         calculate D2E/DX2 analytically  !
 ! R10   R(6,7)                  1.3979         calculate D2E/DX2 analytically  !
 ! R11   R(6,15)                 1.0879         calculate D2E/DX2 analytically  !
 ! R12   R(7,8)                  1.3903         calculate D2E/DX2 analytically  !
 ! R13   R(7,16)                 1.0872         calculate D2E/DX2 analytically  !
 ! R14   R(8,9)                  1.3935         calculate D2E/DX2 analytically  !
 ! R15   R(8,17)                 1.0872         calculate D2E/DX2 analytically  !
 ! R16   R(9,10)                 1.4054         calculate D2E/DX2 analytically  !
 ! R17   R(9,18)                 1.0877         calculate D2E/DX2 analytically  !
 ! R18   R(10,11)                1.4041         calculate D2E/DX2 analytically  !
 ! R19   R(11,12)                1.3896         calculate D2E/DX2 analytically  !
 ! R20   R(11,19)                1.0879         calculate D2E/DX2 analytically  !
 ! R21   R(12,20)                1.084          calculate D2E/DX2 analytically  !
 ! A1    A(1,2,3)              108.887          calculate D2E/DX2 analytically  !
 ! A2    A(1,2,13)             104.5059         calculate D2E/DX2 analytically  !
 ! A3    A(1,2,14)             122.9165         calculate D2E/DX2 analytically  !
 ! A4    A(3,2,13)             105.7363         calculate D2E/DX2 analytically  !
 ! A5    A(3,2,14)             108.8869         calculate D2E/DX2 analytically  !
 ! A6    A(13,2,14)            104.5054         calculate D2E/DX2 analytically  !
 ! A7    A(2,3,4)              114.5702         calculate D2E/DX2 analytically  !
 ! A8    A(2,3,12)             120.1871         calculate D2E/DX2 analytically  !
 ! A9    A(4,3,12)             125.2427         calculate D2E/DX2 analytically  !
 ! A10   A(3,4,5)              117.1465         calculate D2E/DX2 analytically  !
 ! A11   A(4,5,6)              119.3803         calculate D2E/DX2 analytically  !
 ! A12   A(4,5,10)             122.3362         calculate D2E/DX2 analytically  !
 ! A13   A(6,5,10)             118.2835         calculate D2E/DX2 analytically  !
 ! A14   A(5,6,7)              121.6561         calculate D2E/DX2 analytically  !
 ! A15   A(5,6,15)             118.95           calculate D2E/DX2 analytically  !
 ! A16   A(7,6,15)             119.3939         calculate D2E/DX2 analytically  !
 ! A17   A(6,7,8)              119.9077         calculate D2E/DX2 analytically  !
 ! A18   A(6,7,16)             119.8462         calculate D2E/DX2 analytically  !
 ! A19   A(8,7,16)             120.2461         calculate D2E/DX2 analytically  !
 ! A20   A(7,8,9)              119.6725         calculate D2E/DX2 analytically  !
 ! A21   A(7,8,17)             120.1289         calculate D2E/DX2 analytically  !
 ! A22   A(9,8,17)             120.1986         calculate D2E/DX2 analytically  !
 ! A23   A(8,9,10)             120.361          calculate D2E/DX2 analytically  !
 ! A24   A(8,9,18)             119.0147         calculate D2E/DX2 analytically  !
 ! A25   A(10,9,18)            120.6243         calculate D2E/DX2 analytically  !
 ! A26   A(5,10,9)             120.1193         calculate D2E/DX2 analytically  !
 ! A27   A(5,10,11)            118.3288         calculate D2E/DX2 analytically  !
 ! A28   A(9,10,11)            121.5519         calculate D2E/DX2 analytically  !
 ! A29   A(10,11,12)           119.9951         calculate D2E/DX2 analytically  !
 ! A30   A(10,11,19)           120.492          calculate D2E/DX2 analytically  !
 ! A31   A(12,11,19)           119.513          calculate D2E/DX2 analytically  !
 ! A32   A(3,12,11)            116.9508         calculate D2E/DX2 analytically  !
 ! A33   A(3,12,20)            122.1694         calculate D2E/DX2 analytically  !
 ! A34   A(11,12,20)           120.8798         calculate D2E/DX2 analytically  !
 ! D1    D(1,2,3,4)             68.1961         calculate D2E/DX2 analytically  !
 ! D2    D(1,2,3,12)          -111.8042         calculate D2E/DX2 analytically  !
 ! D3    D(13,2,3,4)          -179.9994         calculate D2E/DX2 analytically  !
 ! D4    D(13,2,3,12)            0.0003         calculate D2E/DX2 analytically  !
 ! D5    D(14,2,3,4)           -68.1954         calculate D2E/DX2 analytically  !
 ! D6    D(14,2,3,12)          111.8043         calculate D2E/DX2 analytically  !
 ! D7    D(2,3,4,5)            179.9998         calculate D2E/DX2 analytically  !
 ! D8    D(12,3,4,5)             0.0001         calculate D2E/DX2 analytically  !
 ! D9    D(2,3,12,11)         -179.9996         calculate D2E/DX2 analytically  !
 ! D10   D(2,3,12,20)            0.0            calculate D2E/DX2 analytically  !
 ! D11   D(4,3,12,11)            0.0001         calculate D2E/DX2 analytically  !
 ! D12   D(4,3,12,20)          179.9997         calculate D2E/DX2 analytically  !
 ! D13   D(3,4,5,6)            179.9997         calculate D2E/DX2 analytically  !
 ! D14   D(3,4,5,10)            -0.0003         calculate D2E/DX2 analytically  !
 ! D15   D(4,5,6,7)           -179.9999         calculate D2E/DX2 analytically  !
 ! D16   D(4,5,6,15)            -0.0002         calculate D2E/DX2 analytically  !
 ! D17   D(10,5,6,7)             0.0            calculate D2E/DX2 analytically  !
 ! D18   D(10,5,6,15)          179.9998         calculate D2E/DX2 analytically  !
 ! D19   D(4,5,10,9)          -179.9998         calculate D2E/DX2 analytically  !
 ! D20   D(4,5,10,11)            0.0002         calculate D2E/DX2 analytically  !
 ! D21   D(6,5,10,9)             0.0003         calculate D2E/DX2 analytically  !
 ! D22   D(6,5,10,11)         -179.9998         calculate D2E/DX2 analytically  !
 ! D23   D(5,6,7,8)             -0.0002         calculate D2E/DX2 analytically  !
 ! D24   D(5,6,7,16)           179.9994         calculate D2E/DX2 analytically  !
 ! D25   D(15,6,7,8)          -179.9999         calculate D2E/DX2 analytically  !
 ! D26   D(15,6,7,16)           -0.0004         calculate D2E/DX2 analytically  !
 ! D27   D(6,7,8,9)              0.0001         calculate D2E/DX2 analytically  !
 ! D28   D(6,7,8,17)           179.9999         calculate D2E/DX2 analytically  !
 ! D29   D(16,7,8,9)          -179.9995         calculate D2E/DX2 analytically  !
 ! D30   D(16,7,8,17)            0.0003         calculate D2E/DX2 analytically  !
 ! D31   D(7,8,9,10)             0.0002         calculate D2E/DX2 analytically  !
 ! D32   D(7,8,9,18)           180.0            calculate D2E/DX2 analytically  !
 ! D33   D(17,8,9,10)         -179.9996         calculate D2E/DX2 analytically  !
 ! D34   D(17,8,9,18)            0.0002         calculate D2E/DX2 analytically  !
 ! D35   D(8,9,10,5)            -0.0004         calculate D2E/DX2 analytically  !
 ! D36   D(8,9,10,11)          179.9996         calculate D2E/DX2 analytically  !
 ! D37   D(18,9,10,5)          179.9999         calculate D2E/DX2 analytically  !
 ! D38   D(18,9,10,11)          -0.0001         calculate D2E/DX2 analytically  !
 ! D39   D(5,10,11,12)           0.0            calculate D2E/DX2 analytically  !
 ! D40   D(5,10,11,19)        -179.9998         calculate D2E/DX2 analytically  !
 ! D41   D(9,10,11,12)         180.0            calculate D2E/DX2 analytically  !
 ! D42   D(9,10,11,19)           0.0001         calculate D2E/DX2 analytically  !
 ! D43   D(10,11,12,3)          -0.0002         calculate D2E/DX2 analytically  !
 ! D44   D(10,11,12,20)       -179.9998         calculate D2E/DX2 analytically  !
 ! D45   D(19,11,12,3)         179.9997         calculate D2E/DX2 analytically  !
 ! D46   D(19,11,12,20)          0.0001         calculate D2E/DX2 analytically  !
 --------------------------------------------------------------------------------
 Trust Radius=3.00D-01 FncErr=1.00D-07 GrdErr=1.00D-06 EigMax=2.50D+02 EigMin=1.00D-04
 Number of steps in this run=    111 maximum allowed number of steps=    120.
 GradGradGradGradGradGradGradGradGradGradGradGradGradGradGradGradGradGrad

                          Input orientation:                          
 ---------------------------------------------------------------------
 Center     Atomic      Atomic             Coordinates (Angstroms)
 Number     Number       Type             X           Y           Z
 ---------------------------------------------------------------------
      1          8           0        3.889582   -0.424314    1.449072
      2         16           0        3.414687    0.689450    0.651343
      3          6           0        1.773755    0.321739    0.067474
      4          7           0        0.823497    0.284680    1.038479
      5          6           0       -0.433084    0.011684    0.655246
      6          6           0       -1.440200   -0.037746    1.608818
      7          6           0       -2.765248   -0.317844    1.262573
      8          6           0       -3.099237   -0.555202   -0.066009
      9          6           0       -2.108230   -0.511993   -1.044776
     10          6           0       -0.776442   -0.230277   -0.695283
     11          6           0        0.241724   -0.180510   -1.660809
     12          6           0        1.547892    0.101012   -1.279141
     13          9           0        4.347416    0.679852   -0.644069
     14          8           0        3.451141    2.062808    1.114940
     15          1           0       -1.188202    0.146667    2.650891
     16          1           0       -3.530950   -0.349229    2.033763
     17          1           0       -4.128681   -0.773395   -0.339334
     18          1           0       -2.381445   -0.699343   -2.080850
     19          1           0        0.017011   -0.361046   -2.709808
     20          1           0        2.345015    0.143006   -2.012519
 ---------------------------------------------------------------------
                    Distance matrix (angstroms):
                    1          2          3          4          5
     1  O    0.000000
     2  S    1.449954   0.000000
     3  C    2.634793   1.780105   0.000000
     4  N    3.173663   2.651034   1.359122   0.000000
     5  C    4.416526   3.907010   2.304723   1.341786   0.000000
     6  C    5.346170   5.001550   3.582523   2.356601   1.387813
     7  C    6.658294   6.291251   4.737074   3.645867   2.432370
     8  C    7.152356   6.670454   4.953069   4.160906   2.819564
     9  C    6.496208   5.901093   4.123350   3.683702   2.443446
    10  C    5.138842   4.497206   2.718460   2.414729   1.414344
    11  C    4.799757   4.021264   2.363543   2.800181   2.420003
    12  C    3.633542   2.749172   1.383151   2.435127   2.770217
    13  F    2.410401   1.596298   2.694117   3.924937   4.998784
    14  O    2.547479   1.449954   2.634792   3.173657   4.416518
    15  H    5.249217   5.047711   3.934193   2.581831   2.137994
    16  H    7.443911   7.157640   5.697051   4.511501   3.409889
    17  H    8.222701   7.747500   6.016940   5.248044   3.906786
    18  H    7.201512   6.556582   4.787859   4.579320   3.433350
    19  H    5.683053   4.893371   3.356433   3.888064   3.415421
    20  H    3.832773   2.922149   2.164407   3.412284   3.853836
                    6          7          8          9         10
     6  C    0.000000
     7  C    1.397888   0.000000
     8  C    2.413546   1.390330   0.000000
     9  C    2.777181   2.406912   1.393538   0.000000
    10  C    2.405519   2.792170   2.428361   1.405407   0.000000
    11  C    3.679634   4.196058   3.720995   2.451869   1.404059
    12  C    4.157915   5.023836   4.847486   3.714557   2.419333
    13  F    6.251955   7.431061   7.570478   6.576961   5.204313
    14  O    5.346163   6.658287   7.152347   6.496197   5.138833
    15  H    1.087855   2.151807   3.395029   3.865002   3.392420
    16  H    2.156116   1.087207   2.153566   3.395295   3.879324
    17  H    3.400648   2.152344   1.087231   2.155969   3.414555
    18  H    3.864880   3.386934   2.143732   1.087748   2.171602
    19  H    4.569301   4.850014   4.091255   2.704028   2.169097
    20  H    5.241622   6.087150   5.823768   4.604014   3.408511
                   11         12         13         14         15
    11  C    0.000000
    12  C    1.389604   0.000000
    13  F    4.316327   2.928430   0.000000
    14  O    4.799751   3.633541   2.410392   0.000000
    15  H    4.554392   4.788887   6.464062   5.249213   0.000000
    16  H    5.283124   6.080517   8.384416   7.443907   2.472899
    17  H    4.604156   5.819907   8.605173   8.222692   4.293528
    18  H    2.706777   4.089376   7.017413   7.201501   4.952670
    19  H    1.087883   2.145671   4.909496   5.683046   5.517916
    20  H    2.156895   1.083980   2.484042   3.832774   5.850729
                   16         17         18         19         20
    16  H    0.000000
    17  H    2.483705   0.000000
    18  H    4.286489   2.468035   0.000000
    19  H    5.923651   4.793323   2.502524   0.000000
    20  H    7.151340   6.748932   4.801422   2.481912   0.000000
 Stoichiometry    C9H6FNO2S
 Framework group  C1[X(C9H6FNO2S)]
 Deg. of freedom    54
 Full point group                 C1      NOp   1
 Largest Abelian subgroup         C1      NOp   1
 Largest concise Abelian subgroup C1      NOp   1
                         Standard orientation:                         
 ---------------------------------------------------------------------
 Center     Atomic      Atomic             Coordinates (Angstroms)
 Number     Number       Type             X           Y           Z
 ---------------------------------------------------------------------
      1          8           0        2.799267   -0.929751   -1.273738
      2         16           0        2.491333   -0.309158   -0.000000
      3          6           0        0.782408    0.189185   -0.000006
      4          7           0       -0.106165   -0.839237   -0.000000
      5          6           0       -1.409881   -0.521882    0.000000
      6          6           0       -2.357453   -1.535850    0.000000
      7          6           0       -3.727738   -1.259421   -0.000000
      8          6           0       -4.168951    0.059043    0.000003
      9          6           0       -3.239658    1.097484    0.000006
     10          6           0       -1.862290    0.818154    0.000000
     11          6           0       -0.904436    1.844749   -0.000005
     12          6           0        0.449438    1.531660   -0.000010
     13          9           0        3.337092    1.044673    0.000008
     14          8           0        2.799259   -0.929746    1.273741
     15          1           0       -2.021493   -2.570528   -0.000003
     16          1           0       -4.444605   -2.076808   -0.000010
     17          1           0       -5.233874    0.278154    0.000000
     18          1           0       -3.596669    2.124976    0.000007
     19          1           0       -1.213266    2.887876   -0.000003
     20          1           0        1.201081    2.312713   -0.000010
 ---------------------------------------------------------------------
 Rotational constants (GHZ):           1.7721792           0.3529806           0.3132929
 Standard basis: 6-31G(d) (6D, 7F)
 There are   226 symmetry adapted cartesian basis functions of A   symmetry.
 There are   226 symmetry adapted basis functions of A   symmetry.
   226 basis functions,   440 primitive gaussians,   226 cartesian basis functions
    54 alpha electrons       54 beta electrons
       nuclear repulsion energy       981.6414342372 Hartrees.
 NAtoms=   20 NActive=   20 NUniq=   20 SFac= 1.00D+00 NAtFMM=   60 NAOKFM=F Big=F
 Integral buffers will be    131072 words long.
 Raffenetti 2 integral format.
 Two-electron integral symmetry is turned on.
 R6APFD:  NTU= -4 IXU= 1 FactS= 1.050
 Nuclear repulsion after empirical dispersion term =      981.6247538053 Hartrees.
 One-electron integrals computed using PRISM.
 NBasis=   226 RedAO= T EigKep=  3.68D-04  NBF=   226
 NBsUse=   226 1.00D-06 EigRej= -1.00D+00 NBFU=   226
 ExpMin= 1.17D-01 ExpMax= 2.19D+04 ExpMxC= 3.30D+03 IAcc=3 IRadAn=         5 AccDes= 0.00D+00
 Harris functional with IExCor= 3731 and IRadAn=       5 diagonalized for initial guess.
 HarFok:  IExCor= 3731 AccDes= 0.00D+00 IRadAn=         5 IDoV= 1 UseB2=F ITyADJ=14
 ICtDFT=  3500011 ScaDFX=  1.000000  1.000000  1.000000  1.000000
 FoFCou: FMM=F IPFlag=           0 FMFlag=      100000 FMFlg1=           0
         NFxFlg=           0 DoJE=T BraDBF=F KetDBF=T FulRan=T
         wScrn=  0.000000 ICntrl=       500 IOpCl=  0 I1Cent=   200000004 NGrid=           0
         NMat0=    1 NMatS0=      1 NMatT0=    0 NMatD0=    1 NMtDS0=    0 NMtDT0=    0
 Petite list used in FoFCou.
 Keep R1 ints in memory in canonical form, NReq=334849580.
 Requested convergence on RMS density matrix=1.00D-08 within  32 cycles.
 Requested convergence on MAX density matrix=1.00D-06.
 Requested convergence on             energy=1.00D-06.
 No special actions if energy rises.
 Integral accuracy reduced to 1.0D-05 until final iterations.
 Initial convergence to 1.0D-05 achieved.  Increase integral accuracy.
 SCF Done:  E(RAPFD) =  -1049.12095938     A.U. after   15 cycles
            NFock= 15  Conv=0.80D-08     -V/T= 2.0066
 QCSCF skips out because SCF is already converged.
 DoSCS=F DFT=T ScalE2(SS,OS)=  1.000000  1.000000
 Range of M.O.s used for correlation:     1   226
 NBasis=   226 NAE=    54 NBE=    54 NFC=     0 NFV=     0
 NROrb=    226 NOA=    54 NOB=    54 NVA=   172 NVB=   172
 R6APFD:  NTU= -4 IXU= 1 FactS= 1.050
 Symmetrizing basis deriv contribution to polar:
 IMax=3 JMax=2 DiffMx= 0.00D+00
 G2DrvN: will do    21 centers at a time, making    1 passes.
 Calling FoFCou, ICntrl=  3107 FMM=F I1Cent=   0 AccDes= 0.00D+00.
 End of G2Drv F.D. properties file   721 does not exist.
 End of G2Drv F.D. properties file   722 does not exist.
 End of G2Drv F.D. properties file   788 does not exist.
          IDoAtm=11111111111111111111
          Differentiating once with respect to nuclear coordinates.
 Keep R1 ints in memory in canonical form, NReq=334857950.
          There are    63 degrees of freedom in the 1st order CPHF.  IDoFFX=6 NUNeed=     0.
     57 vectors produced by pass  0 Test12= 1.47D-14 1.59D-09 XBig12= 1.86D-01 1.71D-01.
 AX will form    57 AO Fock derivatives at one time.
     57 vectors produced by pass  1 Test12= 1.47D-14 1.59D-09 XBig12= 2.93D-02 3.89D-02.
     57 vectors produced by pass  2 Test12= 1.47D-14 1.59D-09 XBig12= 5.06D-04 4.03D-03.
     57 vectors produced by pass  3 Test12= 1.47D-14 1.59D-09 XBig12= 4.72D-06 4.16D-04.
     57 vectors produced by pass  4 Test12= 1.47D-14 1.59D-09 XBig12= 1.85D-08 2.01D-05.
     57 vectors produced by pass  5 Test12= 1.47D-14 1.59D-09 XBig12= 2.88D-11 8.53D-07.
     21 vectors produced by pass  6 Test12= 1.47D-14 1.59D-09 XBig12= 3.44D-14 2.30D-08.
 InvSVY:  IOpt=1 It=  1 EMax= 6.66D-16
 Solved reduced A of dimension   363 with    63 vectors.
 End of Minotr F.D. properties file   721 does not exist.
 End of Minotr F.D. properties file   722 does not exist.
 End of Minotr F.D. properties file   788 does not exist.

 **********************************************************************

            Population analysis using the SCF density.

 **********************************************************************

 Orbital symmetries:
       Occupied  (A) (A) (A) (A) (A) (A) (A) (A) (A) (A) (A) (A)
                 (A) (A) (A) (A) (A) (A) (A) (A) (A) (A) (A) (A)
                 (A) (A) (A) (A) (A) (A) (A) (A) (A) (A) (A) (A)
                 (A) (A) (A) (A) (A) (A) (A) (A) (A) (A) (A) (A)
                 (A) (A) (A) (A) (A) (A)
       Virtual   (A) (A) (A) (A) (A) (A) (A) (A) (A) (A) (A) (A)
                 (A) (A) (A) (A) (A) (A) (A) (A) (A) (A) (A) (A)
                 (A) (A) (A) (A) (A) (A) (A) (A) (A) (A) (A) (A)
                 (A) (A) (A) (A) (A) (A) (A) (A) (A) (A) (A) (A)
                 (A) (A) (A) (A) (A) (A) (A) (A) (A) (A) (A) (A)
                 (A) (A) (A) (A) (A) (A) (A) (A) (A) (A) (A) (A)
                 (A) (A) (A) (A) (A) (A) (A) (A) (A) (A) (A) (A)
                 (A) (A) (A) (A) (A) (A) (A) (A) (A) (A) (A) (A)
                 (A) (A) (A) (A) (A) (A) (A) (A) (A) (A) (A) (A)
                 (A) (A) (A) (A) (A) (A) (A) (A) (A) (A) (A) (A)
                 (A) (A) (A) (A) (A) (A) (A) (A) (A) (A) (A) (A)
                 (A) (A) (A) (A) (A) (A) (A) (A) (A) (A) (A) (A)
                 (A) (A) (A) (A) (A) (A) (A) (A) (A) (A) (A) (A)
                 (A) (A) (A) (A) (A) (A) (A) (A) (A) (A) (A) (A)
                 (A) (A) (A) (A)
 The electronic state is 1-A.
 Alpha  occ. eigenvalues --  -89.23386 -24.79678 -19.20945 -19.20945 -14.40886
 Alpha  occ. eigenvalues --  -10.31383 -10.27836 -10.26763 -10.26198 -10.25811
 Alpha  occ. eigenvalues --  -10.24846 -10.24699 -10.24641 -10.23934  -8.21256
 Alpha  occ. eigenvalues --   -6.16228  -6.15810  -6.15750  -1.28829  -1.12908
 Alpha  occ. eigenvalues --   -1.04675  -1.00161  -0.89864  -0.86254  -0.81726
 Alpha  occ. eigenvalues --   -0.78223  -0.73746  -0.68217  -0.66055  -0.64675
 Alpha  occ. eigenvalues --   -0.59925  -0.56708  -0.55755  -0.53317  -0.51571
 Alpha  occ. eigenvalues --   -0.50847  -0.49352  -0.47588  -0.46287  -0.45836
 Alpha  occ. eigenvalues --   -0.45648  -0.44774  -0.44274  -0.39494  -0.39286
 Alpha  occ. eigenvalues --   -0.38852  -0.38323  -0.34788  -0.34732  -0.34164
 Alpha  occ. eigenvalues --   -0.32860  -0.30138  -0.29256  -0.26104
 Alpha virt. eigenvalues --   -0.09398  -0.04578  -0.00443   0.01126   0.05509
 Alpha virt. eigenvalues --    0.05816   0.08701   0.10463   0.11766   0.14090
 Alpha virt. eigenvalues --    0.15706   0.15979   0.16647   0.18349   0.18720
 Alpha virt. eigenvalues --    0.22127   0.23486   0.26258   0.28701   0.29249
 Alpha virt. eigenvalues --    0.30286   0.31554   0.33361   0.36029   0.37836
 Alpha virt. eigenvalues --    0.40208   0.44380   0.45511   0.49453   0.49627
 Alpha virt. eigenvalues --    0.49741   0.51901   0.53051   0.53764   0.56938
 Alpha virt. eigenvalues --    0.57462   0.57654   0.59067   0.59625   0.59763
 Alpha virt. eigenvalues --    0.60452   0.60820   0.61296   0.63786   0.65310
 Alpha virt. eigenvalues --    0.66604   0.70009   0.73548   0.76513   0.78315
 Alpha virt. eigenvalues --    0.78861   0.80813   0.81899   0.82400   0.82873
 Alpha virt. eigenvalues --    0.83610   0.84317   0.85278   0.87041   0.88247
 Alpha virt. eigenvalues --    0.88861   0.89166   0.91258   0.92501   0.95133
 Alpha virt. eigenvalues --    0.96406   0.99108   1.01469   1.02809   1.03258
 Alpha virt. eigenvalues --    1.04947   1.05579   1.07003   1.09686   1.15346
 Alpha virt. eigenvalues --    1.15520   1.16578   1.18968   1.19257   1.22483
 Alpha virt. eigenvalues --    1.23391   1.26126   1.27625   1.28088   1.31896
 Alpha virt. eigenvalues --    1.34643   1.36251   1.40028   1.41034   1.41707
 Alpha virt. eigenvalues --    1.44402   1.45188   1.45662   1.46137   1.47032
 Alpha virt. eigenvalues --    1.47773   1.56304   1.59192   1.62342   1.67814
 Alpha virt. eigenvalues --    1.72701   1.76688   1.76986   1.78313   1.79130
 Alpha virt. eigenvalues --    1.79252   1.80631   1.81881   1.83649   1.83934
 Alpha virt. eigenvalues --    1.85749   1.86052   1.88061   1.88402   1.89350
 Alpha virt. eigenvalues --    1.91574   1.94511   1.96206   1.97265   1.98941
 Alpha virt. eigenvalues --    1.99459   2.02104   2.05326   2.12188   2.12419
 Alpha virt. eigenvalues --    2.13816   2.15973   2.16380   2.17675   2.19565
 Alpha virt. eigenvalues --    2.22307   2.25530   2.27513   2.30056   2.30184
 Alpha virt. eigenvalues --    2.31465   2.33464   2.39270   2.40655   2.54346
 Alpha virt. eigenvalues --    2.58709   2.60721   2.60877   2.64087   2.67130
 Alpha virt. eigenvalues --    2.67927   2.71242   2.72580   2.74632   2.81468
 Alpha virt. eigenvalues --    2.81724   2.84356   2.85354   2.92150   2.97237
 Alpha virt. eigenvalues --    3.08065   3.38296   3.44882   3.79829   3.86409
 Alpha virt. eigenvalues --    3.95894   4.06289   4.08750   4.11161   4.14065
 Alpha virt. eigenvalues --    4.19950   4.28187   4.35497   4.39974   4.49097
 Alpha virt. eigenvalues --    4.55471   4.78114
          Condensed to atoms (all electrons):
               1          2          3          4          5          6
     1  O    8.135214   0.464682  -0.053782  -0.001384  -0.000028  -0.000001
     2  S    0.464682  13.479714   0.188467  -0.016229   0.000046  -0.000556
     3  C   -0.053782   0.188467   5.291987   0.388930  -0.052191   0.005642
     4  N   -0.001384  -0.016229   0.388930   6.947231   0.401173  -0.087620
     5  C   -0.000028   0.000046  -0.052191   0.401173   4.628605   0.491803
     6  C   -0.000001  -0.000556   0.005642  -0.087620   0.491803   5.050697
     7  C   -0.000000   0.000007  -0.000235   0.005321  -0.019657   0.539417
     8  C   -0.000000  -0.000000   0.000034  -0.000649  -0.038948  -0.029680
     9  C    0.000000   0.000005   0.000436   0.010812  -0.011698  -0.052967
    10  C    0.000008   0.000852  -0.035883  -0.053022   0.429666  -0.075929
    11  C   -0.000109   0.000146  -0.037522  -0.049798  -0.044505   0.010863
    12  C    0.000168  -0.026109   0.416277  -0.022206  -0.039652   0.000527
    13  F   -0.036871   0.196877  -0.029950   0.000454  -0.000009   0.000000
    14  O   -0.040386   0.464683  -0.053782  -0.001384  -0.000028  -0.000001
    15  H    0.000000   0.000043   0.000069   0.000013  -0.027823   0.351820
    16  H    0.000000  -0.000000   0.000003  -0.000090   0.003077  -0.032730
    17  H   -0.000000   0.000000  -0.000000   0.000004   0.000805   0.003581
    18  H    0.000000   0.000000  -0.000002  -0.000095   0.003040   0.000350
    19  H    0.000000  -0.000012   0.005399  -0.000155   0.003899  -0.000152
    20  H    0.000007  -0.000556  -0.036426   0.003667   0.000478   0.000017
               7          8          9         10         11         12
     1  O   -0.000000  -0.000000   0.000000   0.000008  -0.000109   0.000168
     2  S    0.000007  -0.000000   0.000005   0.000852   0.000146  -0.026109
     3  C   -0.000235   0.000034   0.000436  -0.035883  -0.037522   0.416277
     4  N    0.005321  -0.000649   0.010812  -0.053022  -0.049798  -0.022206
     5  C   -0.019657  -0.038948  -0.011698   0.429666  -0.044505  -0.039652
     6  C    0.539417  -0.029680  -0.052967  -0.075929   0.010863   0.000527
     7  C    4.904761   0.507688  -0.036441  -0.029519  -0.000063   0.000036
     8  C    0.507688   4.913031   0.519521  -0.007564   0.007825  -0.000454
     9  C   -0.036441   0.519521   5.092031   0.444321  -0.084421   0.008234
    10  C   -0.029519  -0.007564   0.444321   4.800012   0.473251  -0.004396
    11  C   -0.000063   0.007825  -0.084421   0.473251   5.075447   0.466280
    12  C    0.000036  -0.000454   0.008234  -0.004396   0.466280   5.072891
    13  F   -0.000000   0.000000  -0.000000  -0.000007   0.000433   0.004776
    14  O   -0.000000  -0.000000   0.000000   0.000008  -0.000109   0.000168
    15  H   -0.039405   0.004241   0.000121   0.006573  -0.000152   0.000013
    16  H    0.367879  -0.039163   0.004305   0.000427   0.000002   0.000000
    17  H   -0.037273   0.365926  -0.032798   0.002687  -0.000166   0.000002
    18  H    0.004074  -0.038119   0.365987  -0.039318  -0.006003   0.000227
    19  H   -0.000000   0.000268  -0.006476  -0.040747   0.371578  -0.044190
    20  H   -0.000000   0.000002  -0.000099   0.003011  -0.025790   0.355689
              13         14         15         16         17         18
     1  O   -0.036871  -0.040386   0.000000   0.000000  -0.000000   0.000000
     2  S    0.196877   0.464683   0.000043  -0.000000   0.000000   0.000000
     3  C   -0.029950  -0.053782   0.000069   0.000003  -0.000000  -0.000002
     4  N    0.000454  -0.001384   0.000013  -0.000090   0.000004  -0.000095
     5  C   -0.000009  -0.000028  -0.027823   0.003077   0.000805   0.003040
     6  C    0.000000  -0.000001   0.351820  -0.032730   0.003581   0.000350
     7  C   -0.000000  -0.000000  -0.039405   0.367879  -0.037273   0.004074
     8  C    0.000000  -0.000000   0.004241  -0.039163   0.365926  -0.038119
     9  C   -0.000000   0.000000   0.000121   0.004305  -0.032798   0.365987
    10  C   -0.000007   0.000008   0.006573   0.000427   0.002687  -0.039318
    11  C    0.000433  -0.000109  -0.000152   0.000002  -0.000166  -0.006003
    12  C    0.004776   0.000168   0.000013   0.000000   0.000002   0.000227
    13  F    9.187434  -0.036872   0.000000   0.000000   0.000000  -0.000000
    14  O   -0.036872   8.135215   0.000000   0.000000  -0.000000   0.000000
    15  H    0.000000   0.000000   0.507078  -0.004703  -0.000138   0.000016
    16  H    0.000000   0.000000  -0.004703   0.515959  -0.004001  -0.000166
    17  H    0.000000  -0.000000  -0.000138  -0.004001   0.519162  -0.003944
    18  H   -0.000000   0.000000   0.000016  -0.000166  -0.003944   0.525651
    19  H    0.000001   0.000000   0.000003  -0.000000  -0.000008   0.004465
    20  H    0.006437   0.000007  -0.000001   0.000000  -0.000000  -0.000010
              19         20
     1  O    0.000000   0.000007
     2  S   -0.000012  -0.000556
     3  C    0.005399  -0.036426
     4  N   -0.000155   0.003667
     5  C    0.003899   0.000478
     6  C   -0.000152   0.000017
     7  C   -0.000000  -0.000000
     8  C    0.000268   0.000002
     9  C   -0.006476  -0.000099
    10  C   -0.040747   0.003011
    11  C    0.371578  -0.025790
    12  C   -0.044190   0.355689
    13  F    0.000001   0.006437
    14  O    0.000000   0.000007
    15  H    0.000003  -0.000001
    16  H   -0.000000   0.000000
    17  H   -0.000008  -0.000000
    18  H    0.004465  -0.000010
    19  H    0.512436  -0.004441
    20  H   -0.004441   0.480876
 Mulliken charges:
               1
     1  O   -0.467519
     2  S    1.247939
     3  C    0.002529
     4  N   -0.524974
     5  C    0.271947
     6  C   -0.175082
     7  C   -0.166589
     8  C   -0.163960
     9  C   -0.220874
    10  C    0.125568
    11  C   -0.157186
    12  C   -0.188283
    13  F   -0.292703
    14  O   -0.467519
    15  H    0.202232
    16  H    0.189201
    17  H    0.186161
    18  H    0.183847
    19  H    0.198133
    20  H    0.217131
 Sum of Mulliken charges =  -0.00000
 Mulliken charges with hydrogens summed into heavy atoms:
               1
     1  O   -0.467519
     2  S    1.247939
     3  C    0.002529
     4  N   -0.524974
     5  C    0.271947
     6  C    0.027150
     7  C    0.022612
     8  C    0.022201
     9  C   -0.037027
    10  C    0.125568
    11  C    0.040947
    12  C    0.028849
    13  F   -0.292703
    14  O   -0.467519
 APT charges:
               1
     1  O   -0.061182
     2  S    0.176353
     3  C   -0.119457
     4  N   -0.534141
     5  C   -0.241140
     6  C   -0.658656
     7  C   -0.381120
     8  C   -0.445318
     9  C   -0.613287
    10  C   -0.393390
    11  C   -0.482008
    12  C   -0.585697
    13  F    0.026772
    14  O   -0.061187
    15  H    0.495093
    16  H    0.896865
    17  H    0.996130
    18  H    0.703607
    19  H    0.676518
    20  H    0.605245
 Sum of APT charges =  -0.00000
 APT charges with hydrogens summed into heavy atoms:
               1
     1  O   -0.061182
     2  S    0.176353
     3  C   -0.119457
     4  N   -0.534141
     5  C   -0.241140
     6  C   -0.163563
     7  C    0.515745
     8  C    0.550812
     9  C    0.090321
    10  C   -0.393390
    11  C    0.194510
    12  C    0.019548
    13  F    0.026772
    14  O   -0.061187
 Electronic spatial extent (au):  <R**2>=           3310.1281
 Charge=             -0.0000 electrons
 Dipole moment (field-independent basis, Debye):
    X=             -6.2726    Y=              3.6800    Z=             -0.0000  Tot=              7.2724
 Quadrupole moment (field-independent basis, Debye-Ang):
   XX=            -80.2532   YY=            -76.9048   ZZ=            -91.6735
   XY=              6.3104   XZ=             -0.0000   YZ=              0.0000
 Traceless Quadrupole moment (field-independent basis, Debye-Ang):
   XX=              2.6906   YY=              6.0390   ZZ=             -8.7297
   XY=              6.3104   XZ=             -0.0000   YZ=              0.0000
 Octapole moment (field-independent basis, Debye-Ang**2):
  XXX=            -49.6701  YYY=             13.5374  ZZZ=              0.0000  XYY=             -6.0365
  XXY=              9.1550  XXZ=             -0.0002  XZZ=             13.5123  YZZ=              3.8867
  YYZ=             -0.0000  XYZ=             -0.0001
 Hexadecapole moment (field-independent basis, Debye-Ang**3):
 XXXX=          -3029.6212 YYYY=           -598.8597 ZZZZ=           -195.8768 XXXY=             64.5704
 XXXZ=              0.0011 YYYX=             23.4388 YYYZ=              0.0002 ZZZX=              0.0002
 ZZZY=              0.0002 XXYY=           -614.1499 XXZZ=           -650.4139 YYZZ=           -156.4691
 XXYZ=              0.0004 YYXZ=              0.0002 ZZXY=             14.5956
 N-N= 9.816247538053D+02 E-N=-4.428775253841D+03  KE= 1.042247603722D+03
  Exact polarizability:   0.000   0.000   0.000   0.000   0.000   0.000
 Approx polarizability: 293.034  17.294 224.292  -0.000   0.000  95.356
 R6APFD:  NTU= -4 IXU= 1 FactS= 1.050
 Calling FoFJK, ICntrl=    100147 FMM=F ISym2X=0 I1Cent= 0 IOpClX= 0 NMat=1 NMatS=1 NMatT=0.
 ***** Axes restored to original set *****
 -------------------------------------------------------------------
 Center     Atomic                   Forces (Hartrees/Bohr)
 Number     Number              X              Y              Z
 -------------------------------------------------------------------
      1        8          -0.003481328    0.006452205   -0.004044756
      2       16           0.008363824    0.006773766    0.039441136
      3        6          -0.034445874   -0.002239821    0.028523496
      4        7           0.049312444    0.005633281   -0.022771166
      5        6           0.008500856    0.000617829   -0.006555756
      6        6          -0.033787949   -0.002794368    0.023536373
      7        6           0.022972752    0.006367446    0.017256352
      8        6           0.007106241   -0.002111564   -0.025042533
      9        6          -0.022251976   -0.002831591    0.008123161
     10        6          -0.001174422   -0.002844870   -0.019636849
     11        6           0.014910893    0.002455576   -0.001287603
     12        6          -0.013823040   -0.005040284   -0.019382369
     13        9          -0.007818292   -0.003377101   -0.014872372
     14        8          -0.000924584   -0.008053592   -0.002094977
     15        1           0.002254289    0.000185943   -0.001574419
     16        1           0.001018416    0.000218223    0.000285369
     17        1           0.000489132   -0.000027012   -0.000844115
     18        1           0.003049335    0.000456217   -0.000605128
     19        1          -0.001486565   -0.000159951    0.000760684
     20        1           0.001215848    0.000319667    0.000785472
 -------------------------------------------------------------------
 Cartesian Forces:  Max     0.049312444 RMS     0.014300736
 FormGI is forming the generalized inverse of G from B-inverse, IUseBI=4.

 GradGradGradGradGradGradGradGradGradGradGradGradGradGradGradGradGradGrad
 Berny optimization.
 Internal  Forces:  Max     0.048337899 RMS     0.008476521
 Search for a local minimum.
 Step number   1 out of a maximum of  111
 All quantities printed in internal units (Hartrees-Bohrs-Radians)
 Mixed Optimization -- RFO/linear search
 Second derivative matrix not updated -- analytic derivatives used.
 ITU=  0
     Eigenvalues ---   -0.00094   0.01428   0.01561   0.01638   0.01800
     Eigenvalues ---    0.01947   0.02018   0.02187   0.02310   0.02488
     Eigenvalues ---    0.02619   0.02672   0.02767   0.02853   0.02992
     Eigenvalues ---    0.11243   0.11503   0.11667   0.12218   0.12487
     Eigenvalues ---    0.12693   0.14148   0.16466   0.16489   0.17886
     Eigenvalues ---    0.18157   0.18235   0.19007   0.19868   0.20305
     Eigenvalues ---    0.20740   0.21957   0.23023   0.27900   0.30995
     Eigenvalues ---    0.32531   0.36255   0.36430   0.36527   0.36582
     Eigenvalues ---    0.36703   0.37350   0.38392   0.40481   0.40854
     Eigenvalues ---    0.43627   0.45455   0.46599   0.48928   0.50433
     Eigenvalues ---    0.51049   0.55836   0.66833   0.66990
 RFO step:  Lambda=-2.02993379D-02 EMin=-9.44851413D-04
 Linear search not attempted -- first point.
 Iteration  1 RMS(Cart)=  0.09556008 RMS(Int)=  0.02774276
 Iteration  2 RMS(Cart)=  0.04856008 RMS(Int)=  0.00220491
 Iteration  3 RMS(Cart)=  0.00227639 RMS(Int)=  0.00027873
 Iteration  4 RMS(Cart)=  0.00000393 RMS(Int)=  0.00027872
 Iteration  5 RMS(Cart)=  0.00000000 RMS(Int)=  0.00027872
 Variable       Old X    -DE/DX   Delta X   Delta X   Delta X     New X
                                 (Linear)    (Quad)   (Total)
    R1        2.74002  -0.00832   0.00000  -0.01201  -0.01201   2.72800
    R2        3.36391   0.00286   0.00000   0.03505   0.03505   3.39896
    R3        3.01657   0.00752   0.00000   0.02767   0.02767   3.04424
    R4        2.74002  -0.00832   0.00000  -0.01797  -0.01797   2.72205
    R5        2.56837  -0.04834   0.00000  -0.12201  -0.12198   2.44639
    R6        2.61378   0.01984   0.00000   0.04781   0.04792   2.66170
    R7        2.53561   0.00967   0.00000   0.02511   0.02502   2.56063
    R8        2.62259   0.02178   0.00000   0.04519   0.04516   2.66774
    R9        2.67272   0.01754   0.00000   0.02528   0.02508   2.69781
   R10        2.64163  -0.01779   0.00000  -0.04444  -0.04438   2.59725
   R11        2.05575  -0.00095   0.00000  -0.00339  -0.00339   2.05235
   R12        2.62734   0.02186   0.00000   0.04349   0.04358   2.67092
   R13        2.05452  -0.00052   0.00000  -0.00063  -0.00063   2.05390
   R14        2.63340  -0.01241   0.00000  -0.03484  -0.03481   2.59859
   R15        2.05457  -0.00025   0.00000  -0.00054  -0.00054   2.05403
   R16        2.65583   0.00583   0.00000   0.01687   0.01681   2.67265
   R17        2.05555  -0.00027   0.00000  -0.00005  -0.00005   2.05549
   R18        2.65329   0.00227   0.00000   0.01723   0.01722   2.67050
   R19        2.62597  -0.00952   0.00000  -0.02930  -0.02921   2.59676
   R20        2.05580  -0.00040   0.00000  -0.00028  -0.00028   2.05552
   R21        2.04842   0.00038   0.00000  -0.00241  -0.00241   2.04602
    A1        1.90044   0.00341   0.00000   0.01902   0.01820   1.91864
    A2        1.82397   0.01116   0.00000   0.02624   0.02576   1.84974
    A3        2.14530   0.00094   0.00000  -0.00567  -0.00669   2.13860
    A4        1.84545  -0.03707   0.00000  -0.14247  -0.14230   1.70315
    A5        1.90044   0.00341   0.00000   0.03785   0.03739   1.93782
    A6        1.82396   0.01117   0.00000   0.03590   0.03675   1.86072
    A7        1.99963  -0.01430   0.00000  -0.04319  -0.04354   1.95609
    A8        2.09766   0.00447   0.00000   0.01901   0.01862   2.11628
    A9        2.18590   0.00983   0.00000   0.02417   0.02397   2.20987
   A10        2.04459  -0.00215   0.00000   0.00888   0.00882   2.05341
   A11        2.08358  -0.00259   0.00000  -0.00910  -0.00895   2.07463
   A12        2.13517   0.00052   0.00000  -0.01192  -0.01202   2.12315
   A13        2.06444   0.00207   0.00000   0.02103   0.02096   2.08540
   A14        2.12330  -0.00738   0.00000  -0.02784  -0.02783   2.09547
   A15        2.07607   0.00103   0.00000  -0.01392  -0.01392   2.06215
   A16        2.08382   0.00635   0.00000   0.04175   0.04175   2.12557
   A17        2.09278   0.00459   0.00000   0.01230   0.01243   2.10521
   A18        2.09171  -0.00327   0.00000   0.00008   0.00001   2.09172
   A19        2.09869  -0.00132   0.00000  -0.01238  -0.01244   2.08625
   A20        2.08868   0.00515   0.00000   0.01451   0.01461   2.10329
   A21        2.09665  -0.00161   0.00000  -0.00986  -0.00991   2.08673
   A22        2.09786  -0.00354   0.00000  -0.00465  -0.00470   2.09316
   A23        2.10070  -0.00162   0.00000  -0.00336  -0.00341   2.09728
   A24        2.07720   0.00403   0.00000   0.02686   0.02689   2.10409
   A25        2.10529  -0.00241   0.00000  -0.02350  -0.02348   2.08182
   A26        2.09648  -0.00281   0.00000  -0.01664  -0.01676   2.07972
   A27        2.06523  -0.00485   0.00000  -0.01007  -0.01008   2.05515
   A28        2.12148   0.00766   0.00000   0.02670   0.02684   2.14832
   A29        2.09431  -0.00479   0.00000  -0.00127  -0.00117   2.09314
   A30        2.10298   0.00072   0.00000  -0.01480  -0.01485   2.08813
   A31        2.08589   0.00407   0.00000   0.01607   0.01602   2.10191
   A32        2.04118   0.00143   0.00000  -0.00979  -0.00956   2.03161
   A33        2.13226  -0.00218   0.00000  -0.01198  -0.01210   2.12016
   A34        2.10975   0.00075   0.00000   0.02177   0.02166   2.13141
    D1        1.19025   0.00355   0.00000   0.30416   0.30465   1.49490
    D2       -1.95135   0.00355   0.00000   0.34867   0.34844  -1.60291
    D3       -3.14158  -0.00000   0.00000   0.27401   0.27498  -2.86661
    D4        0.00001  -0.00000   0.00000   0.31853   0.31876   0.31877
    D5       -1.19023  -0.00355   0.00000   0.26323   0.26286  -0.92737
    D6        1.95135  -0.00355   0.00000   0.30774   0.30665   2.25800
    D7        3.14159   0.00000   0.00000   0.05632   0.05578  -3.08581
    D8        0.00000   0.00000   0.00000   0.00921   0.00914   0.00915
    D9       -3.14158  -0.00000   0.00000  -0.05205  -0.05279   3.08881
   D10        0.00000   0.00000   0.00000  -0.05513  -0.05582  -0.05582
   D11        0.00000  -0.00000   0.00000  -0.00248  -0.00223  -0.00223
   D12        3.14159   0.00000   0.00000  -0.00557  -0.00526   3.13633
   D13        3.14159   0.00000   0.00000  -0.00480  -0.00490   3.13669
   D14       -0.00000   0.00000   0.00000  -0.00961  -0.00966  -0.00967
   D15       -3.14159  -0.00000   0.00000  -0.00366  -0.00368   3.13791
   D16       -0.00000   0.00000   0.00000  -0.00376  -0.00378  -0.00378
   D17        0.00000  -0.00000   0.00000   0.00095   0.00098   0.00098
   D18        3.14159   0.00000   0.00000   0.00085   0.00088  -3.14072
   D19       -3.14159  -0.00000   0.00000   0.00469   0.00468  -3.13691
   D20        0.00000  -0.00000   0.00000   0.00371   0.00376   0.00377
   D21        0.00000  -0.00000   0.00000  -0.00007  -0.00012  -0.00012
   D22       -3.14159  -0.00000   0.00000  -0.00105  -0.00103   3.14056
   D23       -0.00000   0.00000   0.00000  -0.00083  -0.00083  -0.00083
   D24        3.14158   0.00000   0.00000  -0.00063  -0.00063   3.14095
   D25       -3.14159  -0.00000   0.00000  -0.00073  -0.00073   3.14086
   D26       -0.00001   0.00000   0.00000  -0.00053  -0.00053  -0.00053
   D27        0.00000   0.00000   0.00000  -0.00020  -0.00020  -0.00020
   D28        3.14159   0.00000   0.00000   0.00007   0.00007  -3.14152
   D29       -3.14158  -0.00000   0.00000  -0.00040  -0.00040   3.14120
   D30        0.00000  -0.00000   0.00000  -0.00013  -0.00013  -0.00012
   D31        0.00000  -0.00000   0.00000   0.00107   0.00107   0.00108
   D32        3.14159   0.00000   0.00000   0.00037   0.00037  -3.14123
   D33       -3.14159  -0.00000   0.00000   0.00079   0.00080  -3.14079
   D34        0.00000  -0.00000   0.00000   0.00010   0.00009   0.00009
   D35       -0.00001   0.00000   0.00000  -0.00093  -0.00090  -0.00091
   D36        3.14159   0.00000   0.00000   0.00008   0.00006  -3.14153
   D37        3.14159   0.00000   0.00000  -0.00023  -0.00020   3.14139
   D38       -0.00000   0.00000   0.00000   0.00079   0.00076   0.00076
   D39        0.00000  -0.00000   0.00000   0.00334   0.00330   0.00330
   D40       -3.14159  -0.00000   0.00000   0.00406   0.00390  -3.13769
   D41        3.14159   0.00000   0.00000   0.00235   0.00235  -3.13924
   D42        0.00000  -0.00000   0.00000   0.00307   0.00295   0.00295
   D43       -0.00000   0.00000   0.00000  -0.00391  -0.00416  -0.00416
   D44       -3.14159  -0.00000   0.00000  -0.00087  -0.00111   3.14049
   D45        3.14159   0.00000   0.00000  -0.00462  -0.00477   3.13682
   D46        0.00000  -0.00000   0.00000  -0.00158  -0.00171  -0.00171
         Item               Value     Threshold  Converged?
 Maximum Force            0.048338     0.000450     NO 
 RMS     Force            0.008477     0.000300     NO 
 Maximum Displacement     0.728212     0.001800     NO 
 RMS     Displacement     0.137071     0.001200     NO 
 Predicted change in Energy=-1.107990D-02
 GradGradGradGradGradGradGradGradGradGradGradGradGradGradGradGradGradGrad

                          Input orientation:                          
 ---------------------------------------------------------------------
 Center     Atomic      Atomic             Coordinates (Angstroms)
 Number     Number       Type             X           Y           Z
 ---------------------------------------------------------------------
      1          8           0        3.984890   -0.564777    1.188921
      2         16           0        3.388982    0.664322    0.721824
      3          6           0        1.747645    0.338079    0.062491
      4          7           0        0.841699    0.344624    0.987228
      5          6           0       -0.429133    0.045190    0.624706
      6          6           0       -1.436484    0.038907    1.613710
      7          6           0       -2.734515   -0.257156    1.272464
      8          6           0       -3.076636   -0.556641   -0.065796
      9          6           0       -2.115213   -0.556358   -1.048958
     10          6           0       -0.770780   -0.256606   -0.728175
     11          6           0        0.265926   -0.238583   -1.688364
     12          6           0        1.551270    0.058815   -1.304017
     13          9           0        4.115018    1.006471   -0.674934
     14          8           0        3.401812    1.876223    1.500293
     15          1           0       -1.152677    0.272397    2.635698
     16          1           0       -3.507201   -0.261574    2.036817
     17          1           0       -4.108594   -0.788294   -0.316488
     18          1           0       -2.377735   -0.786395   -2.079153
     19          1           0        0.039370   -0.460316   -2.728878
     20          1           0        2.372355    0.081673   -2.009390
 ---------------------------------------------------------------------
                    Distance matrix (angstroms):
                    1          2          3          4          5
     1  O    0.000000
     2  S    1.443596   0.000000
     3  C    2.662566   1.798650   0.000000
     4  N    3.278313   2.580948   1.294572   0.000000
     5  C    4.491548   3.869207   2.267209   1.355027   0.000000
     6  C    5.471396   4.946890   3.554498   2.382448   1.411709
     7  C    6.726961   6.216875   4.680609   3.637693   2.413667
     8  C    7.172135   6.626863   4.908224   4.156259   2.801475
     9  C    6.497648   5.909475   4.117889   3.701507   2.450689
    10  C    5.136791   4.500469   2.705784   2.429850   1.427617
    11  C    4.713371   4.046940   2.365063   2.798291   2.431857
    12  C    3.539225   2.801403   1.408509   2.415570   2.764445
    13  F    2.441252   1.610941   2.568074   3.730341   4.823116
    14  O    2.528915   1.440445   2.677579   3.027079   4.335375
    15  H    5.402649   4.944005   3.877831   2.588476   2.149238
    16  H    7.546011   7.081231   5.645436   4.514648   3.400391
    17  H    8.235332   7.707258   5.975607   5.242955   3.888312
    18  H    7.156285   6.573057   4.782242   4.587663   3.435031
    19  H    5.561222   4.938832   3.368588   3.886014   3.423677
    20  H    3.639693   2.971960   2.179151   3.375169   3.845534
                    6          7          8          9         10
     6  C    0.000000
     7  C    1.374405   0.000000
     8  C    2.421883   1.413392   0.000000
     9  C    2.811551   2.421168   1.375115   0.000000
    10  C    2.452533   2.803357   2.417797   1.414304   0.000000
    11  C    3.725439   4.215387   3.729156   2.485889   1.413168
    12  C    4.176147   5.010593   4.830061   3.726472   2.413089
    13  F    6.082208   7.232235   7.384732   6.434137   5.046704
    14  O    5.176649   6.500594   7.095192   6.546274   5.188984
    15  H    1.086058   2.154309   3.418624   3.897435   3.426563
    16  H    2.134755   1.086876   2.166433   3.398019   3.890142
    17  H    3.398544   2.166787   1.086944   2.136322   3.404876
    18  H    3.899272   3.411850   2.143562   1.087721   2.165207
    19  H    4.613615   4.873033   4.100095   2.733786   2.168099
    20  H    5.256990   6.079925   5.820353   4.633334   3.411047
                   11         12         13         14         15
    11  C    0.000000
    12  C    1.374146   0.000000
    13  F    4.170457   2.804746   0.000000
    14  O    4.947092   3.819899   2.448825   0.000000
    15  H    4.579415   4.783127   6.264803   4.960319   0.000000
    16  H    5.302262   6.070581   8.189002   7.252068   2.487482
    17  H    4.617429   5.807484   8.424813   8.173527   4.310211
    18  H    2.727958   4.092957   6.880556   7.301036   4.985141
    19  H    1.087733   2.141394   4.793857   5.886537   5.544053
    20  H    2.154685   1.082707   2.381785   4.074073   5.834301
                   16         17         18         19         20
    16  H    0.000000
    17  H    2.485387   0.000000
    18  H    4.300272   2.470398   0.000000
    19  H    5.943863   4.809657   2.524057   0.000000
    20  H    7.145543   6.754662   4.829261   2.500847   0.000000
 Stoichiometry    C9H6FNO2S
 Framework group  C1[X(C9H6FNO2S)]
 Deg. of freedom    54
 Full point group                 C1      NOp   1
 Largest Abelian subgroup         C1      NOp   1
 Largest concise Abelian subgroup C1      NOp   1
                         Standard orientation:                         
 ---------------------------------------------------------------------
 Center     Atomic      Atomic             Coordinates (Angstroms)
 Number     Number       Type             X           Y           Z
 ---------------------------------------------------------------------
      1          8           0        2.876389   -0.547304   -1.416420
      2         16           0        2.482770   -0.333741   -0.044041
      3          6           0        0.769326    0.208924    0.024990
      4          7           0       -0.056937   -0.787671    0.027589
      5          6           0       -1.382221   -0.505832    0.010647
      6          6           0       -2.306031   -1.573298    0.006966
      7          6           0       -3.655980   -1.315486   -0.005722
      8          6           0       -4.134881    0.014273   -0.014188
      9          6           0       -3.256834    1.072551   -0.009622
     10          6           0       -1.862047    0.838709    0.002316
     11          6           0       -0.905391    1.878817    0.007636
     12          6           0        0.435217    1.577205    0.016497
     13          9           0        3.164126    1.056316    0.401635
     14          8           0        2.766255   -1.284686    1.000096
     15          1           0       -1.917327   -2.587387    0.014301
     16          1           0       -4.364132   -2.139990   -0.009122
     17          1           0       -5.206070    0.198400   -0.024125
     18          1           0       -3.624573    2.096205   -0.015788
     19          1           0       -1.237024    2.914760    0.005246
     20          1           0        1.198120    2.345465    0.019777
 ---------------------------------------------------------------------
 Rotational constants (GHZ):           1.7170937           0.3613455           0.3177599
 Standard basis: 6-31G(d) (6D, 7F)
 There are   226 symmetry adapted cartesian basis functions of A   symmetry.
 There are   226 symmetry adapted basis functions of A   symmetry.
   226 basis functions,   440 primitive gaussians,   226 cartesian basis functions
    54 alpha electrons       54 beta electrons
       nuclear repulsion energy       983.9012365531 Hartrees.
 NAtoms=   20 NActive=   20 NUniq=   20 SFac= 1.00D+00 NAtFMM=   60 NAOKFM=F Big=F
 Integral buffers will be    131072 words long.
 Raffenetti 2 integral format.
 Two-electron integral symmetry is turned on.
 R6APFD:  NTU= -4 IXU= 1 FactS= 1.050
 Nuclear repulsion after empirical dispersion term =      983.8845702357 Hartrees.
 One-electron integrals computed using PRISM.
 NBasis=   226 RedAO= T EigKep=  3.84D-04  NBF=   226
 NBsUse=   226 1.00D-06 EigRej= -1.00D+00 NBFU=   226
 Initial guess from the checkpoint file:  "GNNTZHUFNOYUQO-UHFFFAOYSA-N_conf_0_0.chk"
 B after Tr=    -0.000000    0.000000    0.000000
         Rot=    0.998907   -0.046452    0.001962   -0.004739 Ang=  -5.36 deg.
 ExpMin= 1.17D-01 ExpMax= 2.19D+04 ExpMxC= 3.30D+03 IAcc=2 IRadAn=         4 AccDes= 0.00D+00
 Harris functional with IExCor= 3731 and IRadAn=       4 diagonalized for initial guess.
 HarFok:  IExCor= 3731 AccDes= 0.00D+00 IRadAn=         4 IDoV= 1 UseB2=F ITyADJ=14
 ICtDFT=  3500011 ScaDFX=  1.000000  1.000000  1.000000  1.000000
 FoFCou: FMM=F IPFlag=           0 FMFlag=      100000 FMFlg1=           0
         NFxFlg=           0 DoJE=T BraDBF=F KetDBF=T FulRan=T
         wScrn=  0.000000 ICntrl=       500 IOpCl=  0 I1Cent=   200000004 NGrid=           0
         NMat0=    1 NMatS0=      1 NMatT0=    0 NMatD0=    1 NMtDS0=    0 NMtDT0=    0
 Petite list used in FoFCou.
 Keep R1 ints in memory in canonical form, NReq=334849580.
 Requested convergence on RMS density matrix=1.00D-08 within  32 cycles.
 Requested convergence on MAX density matrix=1.00D-06.
 Requested convergence on             energy=1.00D-06.
 No special actions if energy rises.
 Integral accuracy reduced to 1.0D-05 until final iterations.
 Initial convergence to 1.0D-05 achieved.  Increase integral accuracy.
 SCF Done:  E(RAPFD) =  -1049.13126950     A.U. after   15 cycles
            NFock= 15  Conv=0.46D-08     -V/T= 2.0065
 QCSCF skips out because SCF is already converged.
 R6APFD:  NTU= -4 IXU= 1 FactS= 1.050
 Calling FoFJK, ICntrl=      2127 FMM=F ISym2X=0 I1Cent= 0 IOpClX= 0 NMat=1 NMatS=1 NMatT=0.
 ***** Axes restored to original set *****
 -------------------------------------------------------------------
 Center     Atomic                   Forces (Hartrees/Bohr)
 Number     Number              X              Y              Z
 -------------------------------------------------------------------
      1        8           0.000857036   -0.000165008    0.000022601
      2       16          -0.001309329   -0.001621051    0.002450816
      3        6           0.005395139    0.001348322   -0.003710338
      4        7          -0.003965264   -0.000183150    0.007461830
      5        6          -0.000669490    0.000250952   -0.001666131
      6        6          -0.001644226    0.000309168    0.003140524
      7        6           0.000308884    0.000211625    0.001207347
      8        6          -0.000305369   -0.000315599   -0.001538643
      9        6          -0.001410024   -0.000345341   -0.000157882
     10        6          -0.000155742   -0.000163487   -0.001014485
     11        6           0.001501683    0.000245415   -0.000310284
     12        6          -0.001495730   -0.001534427   -0.003732894
     13        9           0.001964219    0.001165961   -0.001922711
     14        8           0.000011728    0.000653695   -0.000034095
     15        1           0.000544789    0.000081844   -0.000212734
     16        1          -0.000103243   -0.000037614   -0.000072615
     17        1          -0.000026274    0.000012814    0.000054037
     18        1           0.000457267    0.000064394   -0.000136499
     19        1          -0.000258387   -0.000050988    0.000070505
     20        1           0.000302331    0.000072474    0.000101650
 -------------------------------------------------------------------
 Cartesian Forces:  Max     0.007461830 RMS     0.001739839

 GradGradGradGradGradGradGradGradGradGradGradGradGradGradGradGradGradGrad
 Berny optimization.
 Using GEDIIS/GDIIS optimizer.
 FormGI is forming the generalized inverse of G from B-inverse, IUseBI=4.
 Internal  Forces:  Max     0.008343866 RMS     0.001140635
 Search for a local minimum.
 Step number   2 out of a maximum of  111
 All quantities printed in internal units (Hartrees-Bohrs-Radians)
 Mixed Optimization -- RFO/linear search
 Update second derivatives using D2CorX and points    1    2
 DE= -1.03D-02 DEPred=-1.11D-02 R= 9.31D-01
 TightC=F SS=  1.41D+00  RLast= 7.92D-01 DXNew= 5.0454D-01 2.3773D+00
 Trust test= 9.31D-01 RLast= 7.92D-01 DXMaxT set to 5.05D-01
 ITU=  1  0
 Use linear search instead of GDIIS.
     Eigenvalues ---   -0.00097   0.01427   0.01561   0.01637   0.01800
     Eigenvalues ---    0.01946   0.02017   0.02187   0.02309   0.02488
     Eigenvalues ---    0.02619   0.02671   0.02766   0.02853   0.02992
     Eigenvalues ---    0.11212   0.11497   0.11652   0.12209   0.12486
     Eigenvalues ---    0.12687   0.14133   0.16439   0.16459   0.17837
     Eigenvalues ---    0.18103   0.18287   0.18969   0.19802   0.20306
     Eigenvalues ---    0.21397   0.21834   0.23158   0.28059   0.30965
     Eigenvalues ---    0.32397   0.36254   0.36443   0.36537   0.36592
     Eigenvalues ---    0.36703   0.37330   0.38472   0.40838   0.41521
     Eigenvalues ---    0.43695   0.45812   0.46852   0.48948   0.50685
     Eigenvalues ---    0.51546   0.55690   0.66952   0.66990
 RFO step:  Lambda=-1.19308534D-03 EMin=-9.68575508D-04
 Quartic linear search produced a step of -0.01365.
 Iteration  1 RMS(Cart)=  0.08530117 RMS(Int)=  0.05051788
 Iteration  2 RMS(Cart)=  0.08656596 RMS(Int)=  0.00725161
 Iteration  3 RMS(Cart)=  0.00799237 RMS(Int)=  0.00010547
 Iteration  4 RMS(Cart)=  0.00005733 RMS(Int)=  0.00009998
 Iteration  5 RMS(Cart)=  0.00000000 RMS(Int)=  0.00009998
 Variable       Old X    -DE/DX   Delta X   Delta X   Delta X     New X
                                 (Linear)    (Quad)   (Total)
    R1        2.72800   0.00050   0.00016   0.00399   0.00415   2.73215
    R2        3.39896   0.00159  -0.00048   0.00205   0.00158   3.40053
    R3        3.04424   0.00280  -0.00038   0.00893   0.00856   3.05279
    R4        2.72205   0.00053   0.00025  -0.00343  -0.00318   2.71886
    R5        2.44639   0.00834   0.00166   0.01989   0.02161   2.46800
    R6        2.66170   0.00332  -0.00065   0.00459   0.00401   2.66570
    R7        2.56063   0.00189  -0.00034   0.00287   0.00253   2.56316
    R8        2.66774   0.00241  -0.00062   0.00674   0.00613   2.67387
    R9        2.69781   0.00171  -0.00034   0.00262   0.00222   2.70002
   R10        2.59725   0.00038   0.00061  -0.00133  -0.00072   2.59653
   R11        2.05235  -0.00004   0.00005  -0.00037  -0.00032   2.05203
   R12        2.67092   0.00196  -0.00059   0.00519   0.00459   2.67552
   R13        2.05390   0.00002   0.00001   0.00007   0.00008   2.05397
   R14        2.59859   0.00028   0.00048  -0.00166  -0.00118   2.59741
   R15        2.05403   0.00001   0.00001  -0.00001  -0.00001   2.05402
   R16        2.67265   0.00090  -0.00023   0.00285   0.00262   2.67527
   R17        2.05549   0.00001   0.00000   0.00000   0.00000   2.05550
   R18        2.67050   0.00159  -0.00023   0.00115   0.00085   2.67135
   R19        2.59676  -0.00013   0.00040  -0.00075  -0.00034   2.59642
   R20        2.05552  -0.00000   0.00000   0.00006   0.00006   2.05558
   R21        2.04602   0.00016   0.00003   0.00063   0.00066   2.04668
    A1        1.91864   0.00132  -0.00025  -0.00560  -0.00583   1.91280
    A2        1.84974  -0.00082  -0.00035  -0.00909  -0.00944   1.84030
    A3        2.13860  -0.00028   0.00009   0.00114   0.00124   2.13985
    A4        1.70315   0.00204   0.00194   0.00331   0.00524   1.70838
    A5        1.93782  -0.00071  -0.00051   0.00700   0.00649   1.94431
    A6        1.86072  -0.00117  -0.00050   0.00316   0.00261   1.86333
    A7        1.95609  -0.00045   0.00059  -0.00711  -0.00711   1.94898
    A8        2.11628   0.00137  -0.00025   0.00612   0.00525   2.12153
    A9        2.20987  -0.00092  -0.00033  -0.00146  -0.00210   2.20777
   A10        2.05341  -0.00104  -0.00012  -0.00520  -0.00512   2.04829
   A11        2.07463  -0.00069   0.00012  -0.00566  -0.00554   2.06909
   A12        2.12315   0.00011   0.00016   0.00298   0.00314   2.12629
   A13        2.08540   0.00059  -0.00029   0.00267   0.00238   2.08778
   A14        2.09547  -0.00078   0.00038  -0.00341  -0.00303   2.09244
   A15        2.06215  -0.00021   0.00019  -0.00455  -0.00436   2.05779
   A16        2.12557   0.00100  -0.00057   0.00796   0.00739   2.13296
   A17        2.10521   0.00013  -0.00017   0.00095   0.00077   2.10598
   A18        2.09172   0.00007  -0.00000   0.00179   0.00179   2.09352
   A19        2.08625  -0.00020   0.00017  -0.00274  -0.00257   2.08368
   A20        2.10329   0.00041  -0.00020   0.00168   0.00147   2.10476
   A21        2.08673  -0.00027   0.00014  -0.00221  -0.00207   2.08466
   A22        2.09316  -0.00015   0.00006   0.00054   0.00060   2.09377
   A23        2.09728   0.00016   0.00005  -0.00017  -0.00013   2.09715
   A24        2.10409   0.00042  -0.00037   0.00448   0.00412   2.10821
   A25        2.08182  -0.00057   0.00032  -0.00432  -0.00399   2.07783
   A26        2.07972  -0.00050   0.00023  -0.00171  -0.00146   2.07825
   A27        2.05515   0.00086   0.00014   0.00088   0.00096   2.05610
   A28        2.14832  -0.00036  -0.00037   0.00084   0.00050   2.14883
   A29        2.09314   0.00107   0.00002   0.00218   0.00221   2.09535
   A30        2.08813  -0.00081   0.00020  -0.00361  -0.00341   2.08472
   A31        2.10191  -0.00026  -0.00022   0.00143   0.00121   2.10312
   A32        2.03161  -0.00008   0.00013   0.00060   0.00087   2.03248
   A33        2.12016  -0.00025   0.00017  -0.00466  -0.00457   2.11559
   A34        2.13141   0.00033  -0.00030   0.00403   0.00366   2.13507
    D1        1.49490   0.00015  -0.00416   0.38115   0.37700   1.87189
    D2       -1.60291   0.00017  -0.00475   0.43769   0.43292  -1.16999
    D3       -2.86661   0.00050  -0.00375   0.37107   0.36730  -2.49931
    D4        0.31877   0.00052  -0.00435   0.42760   0.42322   0.74199
    D5       -0.92737  -0.00005  -0.00359   0.37815   0.37460  -0.55278
    D6        2.25800  -0.00003  -0.00418   0.43469   0.43052   2.68852
    D7       -3.08581  -0.00037  -0.00076   0.05895   0.05796  -3.02785
    D8        0.00915  -0.00032  -0.00012  -0.00104  -0.00112   0.00803
    D9        3.08881   0.00018   0.00072  -0.05991  -0.05930   3.02951
   D10       -0.05582   0.00009   0.00076  -0.06651  -0.06581  -0.12163
   D11       -0.00223   0.00018   0.00003   0.00547   0.00548   0.00325
   D12        3.13633   0.00009   0.00007  -0.00112  -0.00103   3.13529
   D13        3.13669   0.00016   0.00007  -0.00052  -0.00048   3.13621
   D14       -0.00967   0.00026   0.00013  -0.00375  -0.00366  -0.01333
   D15        3.13791   0.00009   0.00005  -0.00257  -0.00253   3.13538
   D16       -0.00378   0.00008   0.00005  -0.00223  -0.00219  -0.00597
   D17        0.00098  -0.00001  -0.00001   0.00058   0.00058   0.00156
   D18       -3.14072  -0.00002  -0.00001   0.00092   0.00091  -3.13980
   D19       -3.13691  -0.00009  -0.00006   0.00362   0.00358  -3.13333
   D20        0.00377  -0.00006  -0.00005   0.00387   0.00384   0.00761
   D21       -0.00012   0.00001   0.00000   0.00035   0.00035   0.00023
   D22        3.14056   0.00004   0.00001   0.00060   0.00061   3.14117
   D23       -0.00083  -0.00000   0.00001  -0.00076  -0.00075  -0.00159
   D24        3.14095  -0.00000   0.00001  -0.00034  -0.00033   3.14063
   D25        3.14086   0.00001   0.00001  -0.00111  -0.00110   3.13976
   D26       -0.00053   0.00001   0.00001  -0.00068  -0.00068  -0.00121
   D27       -0.00020   0.00001   0.00000  -0.00002  -0.00002  -0.00022
   D28       -3.14152   0.00000  -0.00000   0.00016   0.00016  -3.14136
   D29        3.14120   0.00001   0.00001  -0.00044  -0.00044   3.14076
   D30       -0.00012   0.00000   0.00000  -0.00026  -0.00026  -0.00039
   D31        0.00108  -0.00001  -0.00001   0.00098   0.00096   0.00204
   D32       -3.14123  -0.00001  -0.00001   0.00029   0.00029  -3.14094
   D33       -3.14079  -0.00000  -0.00001   0.00080   0.00079  -3.14000
   D34        0.00009  -0.00000  -0.00000   0.00011   0.00011   0.00021
   D35       -0.00091   0.00000   0.00001  -0.00113  -0.00112  -0.00202
   D36       -3.14153  -0.00003  -0.00000  -0.00139  -0.00139   3.14026
   D37        3.14139   0.00000   0.00000  -0.00046  -0.00046   3.14093
   D38        0.00076  -0.00003  -0.00001  -0.00072  -0.00073   0.00003
   D39        0.00330  -0.00007  -0.00005   0.00082   0.00080   0.00410
   D40       -3.13769  -0.00001  -0.00005   0.00208   0.00202  -3.13567
   D41       -3.13924  -0.00004  -0.00003   0.00108   0.00107  -3.13817
   D42        0.00295   0.00002  -0.00004   0.00233   0.00229   0.00524
   D43       -0.00416   0.00003   0.00006  -0.00501  -0.00497  -0.00914
   D44        3.14049   0.00012   0.00002   0.00165   0.00163  -3.14106
   D45        3.13682  -0.00003   0.00007  -0.00627  -0.00621   3.13062
   D46       -0.00171   0.00006   0.00002   0.00039   0.00040  -0.00131
         Item               Value     Threshold  Converged?
 Maximum Force            0.008344     0.000450     NO 
 RMS     Force            0.001141     0.000300     NO 
 Maximum Displacement     0.877670     0.001800     NO 
 RMS     Displacement     0.171939     0.001200     NO 
 Predicted change in Energy=-1.066917D-03
 GradGradGradGradGradGradGradGradGradGradGradGradGradGradGradGradGradGrad

                          Input orientation:                          
 ---------------------------------------------------------------------
 Center     Atomic      Atomic             Coordinates (Angstroms)
 Number     Number       Type             X           Y           Z
 ---------------------------------------------------------------------
      1          8           0        4.127455   -0.615587    0.736773
      2         16           0        3.395527    0.631122    0.718956
      3          6           0        1.750957    0.355827    0.042391
      4          7           0        0.832713    0.410795    0.969465
      5          6           0       -0.434558    0.085653    0.611646
      6          6           0       -1.448228    0.130210    1.597839
      7          6           0       -2.742826   -0.186659    1.263847
      8          6           0       -3.076693   -0.556980   -0.061275
      9          6           0       -2.111143   -0.605980   -1.038276
     10          6           0       -0.767352   -0.287590   -0.726780
     11          6           0        0.274996   -0.318927   -1.681164
     12          6           0        1.558844   -0.001543   -1.308630
     13          9           0        4.006456    1.470914   -0.518481
     14          8           0        3.356558    1.523411    1.846934
     15          1           0       -1.164569    0.419053    2.605440
     16          1           0       -3.522121   -0.153637    2.020812
     17          1           0       -4.107202   -0.803500   -0.303593
     18          1           0       -2.364161   -0.889470   -2.057471
     19          1           0        0.050529   -0.594078   -2.709336
     20          1           0        2.384816   -0.013036   -2.009096
 ---------------------------------------------------------------------
                    Distance matrix (angstroms):
                    1          2          3          4          5
     1  O    0.000000
     2  S    1.445794   0.000000
     3  C    2.659615   1.799484   0.000000
     4  N    3.458747   2.584437   1.306009   0.000000
     5  C    4.617288   3.870220   2.274537   1.356365   0.000000
     6  C    5.690859   4.948263   3.564422   2.382493   1.414952
     7  C    6.903806   6.216515   4.688319   3.637044   2.414047
     8  C    7.248452   6.626461   4.914281   4.157219   2.801192
     9  C    6.486216   5.911151   4.124164   3.705556   2.451844
    10  C    5.119443   4.501527   2.710625   2.434173   1.428792
    11  C    4.558054   4.049800   2.367359   2.805241   2.433953
    12  C    3.340431   2.807984   1.410630   2.426315   2.769244
    13  F    2.437989   1.615468   2.577843   3.662033   4.787352
    14  O    2.530228   1.438760   2.682831   2.894418   4.238589
    15  H    5.706830   4.939460   3.882462   2.581786   2.149253
    16  H    7.770339   7.082693   5.655003   4.515362   3.402360
    17  H    8.302243   7.706795   5.981786   5.243848   3.888003
    18  H    7.072756   6.572272   4.784807   4.590538   3.434883
    19  H    5.338301   4.944019   3.371317   3.892963   3.424364
    20  H    3.307514   2.979722   2.178631   3.385333   3.850571
                    6          7          8          9         10
     6  C    0.000000
     7  C    1.374024   0.000000
     8  C    2.424209   1.415822   0.000000
     9  C    2.816121   2.423762   1.374488   0.000000
    10  C    2.458048   2.806293   2.418372   1.415690   0.000000
    11  C    3.731365   4.218748   3.730218   2.487843   1.413619
    12  C    4.184185   5.015603   4.832453   3.729242   2.414862
    13  F    6.002489   7.174751   7.381896   6.481412   5.091657
    14  O    5.008894   6.361353   7.025382   6.538692   5.187519
    15  H    1.085888   2.158161   3.423482   3.901714   3.429405
    16  H    2.135535   1.086917   2.167067   3.399043   3.893065
    17  H    3.399618   2.167690   1.086940   2.136123   3.405855
    18  H    3.903841   3.415916   2.145471   1.087723   2.163978
    19  H    4.617642   4.873911   4.097941   2.732290   2.166424
    20  H    5.265237   6.085640   5.823913   4.637642   3.414070
                   11         12         13         14         15
    11  C    0.000000
    12  C    1.373965   0.000000
    13  F    4.298739   2.963658   0.000000
    14  O    5.033657   3.938888   2.453633   0.000000
    15  H    4.581696   4.786839   6.132275   4.715455   0.000000
    16  H    5.305662   6.076555   8.109664   7.082298   2.495560
    17  H    4.619109   5.810104   8.429150   8.108451   4.314650
    18  H    2.726221   4.091351   6.965965   7.334371   4.989388
    19  H    1.087765   2.141983   4.971257   6.014415   5.545246
    20  H    2.156954   1.083058   2.655891   4.263088   5.837703
                   16         17         18         19         20
    16  H    0.000000
    17  H    2.483445   0.000000
    18  H    4.302872   2.474200   0.000000
    19  H    5.944083   4.808137   2.518514   0.000000
    20  H    7.152051   6.758688   4.829417   2.505363   0.000000
 Stoichiometry    C9H6FNO2S
 Framework group  C1[X(C9H6FNO2S)]
 Deg. of freedom    54
 Full point group                 C1      NOp   1
 Largest Abelian subgroup         C1      NOp   1
 Largest concise Abelian subgroup C1      NOp   1
                         Standard orientation:                         
 ---------------------------------------------------------------------
 Center     Atomic      Atomic             Coordinates (Angstroms)
 Number     Number       Type             X           Y           Z
 ---------------------------------------------------------------------
      1          8           0        2.978397   -0.003232   -1.419409
      2         16           0        2.483546   -0.312915   -0.096708
      3          6           0        0.773731    0.228506    0.050046
      4          7           0       -0.053649   -0.781989    0.051360
      5          6           0       -1.380309   -0.501388    0.020337
      6          6           0       -2.299136   -1.577404    0.014293
      7          6           0       -3.649484   -1.324542   -0.009487
      8          6           0       -4.134890    0.005366   -0.026167
      9          6           0       -3.263449    1.068264   -0.018608
     10          6           0       -1.866104    0.842177    0.003539
     11          6           0       -0.914569    1.887570    0.010813
     12          6           0        0.427971    1.595936    0.028511
     13          9           0        3.149213    0.788071    0.880255
     14          8           0        2.683580   -1.594699    0.525423
     15          1           0       -1.899501   -2.586970    0.029149
     16          1           0       -4.356170   -2.150345   -0.015060
     17          1           0       -5.207128    0.182570   -0.044679
     18          1           0       -3.632851    2.091267   -0.030760
     19          1           0       -1.255072    2.920646    0.004013
     20          1           0        1.188221    2.367293    0.035077
 ---------------------------------------------------------------------
 Rotational constants (GHZ):           1.7069373           0.3610762           0.3174071
 Standard basis: 6-31G(d) (6D, 7F)
[...]
     7  C    0.000001  -0.000000
     8  C    0.000272   0.000002
     9  C   -0.007340  -0.000080
    10  C   -0.047477   0.003211
    11  C    0.376506  -0.031666
    12  C   -0.043287   0.353835
    13  F    0.000000  -0.000013
    14  O    0.000000   0.000036
    15  H    0.000003  -0.000001
    16  H   -0.000000   0.000000
    17  H   -0.000005  -0.000000
    18  H    0.004601  -0.000010
    19  H    0.533512  -0.004418
    20  H   -0.004418   0.465867
 Mulliken charges:
               1
     1  O   -0.504370
     2  S    1.230795
     3  C   -0.055949
     4  N   -0.550626
     5  C    0.238485
     6  C   -0.117727
     7  C   -0.152362
     8  C   -0.171792
     9  C   -0.165131
    10  C    0.111766
    11  C   -0.209515
    12  C   -0.146364
    13  F   -0.306880
    14  O   -0.470276
    15  H    0.236356
    16  H    0.210981
    17  H    0.199724
    18  H    0.213566
    19  H    0.178502
    20  H    0.230817
 Sum of Mulliken charges =  -0.00000
 Mulliken charges with hydrogens summed into heavy atoms:
               1
     1  O   -0.504370
     2  S    1.230795
     3  C   -0.055949
     4  N   -0.550626
     5  C    0.238485
     6  C    0.118629
     7  C    0.058618
     8  C    0.027932
     9  C    0.048435
    10  C    0.111766
    11  C   -0.031013
    12  C    0.084453
    13  F   -0.306880
    14  O   -0.470276
 Electronic spatial extent (au):  <R**2>=           3257.2924
 Charge=              0.0000 electrons
 Dipole moment (field-independent basis, Debye):
    X=            -10.3925    Y=              1.4515    Z=              0.7545  Tot=             10.5205
 Quadrupole moment (field-independent basis, Debye-Ang):
   XX=            -76.8051   YY=            -76.9367   ZZ=            -88.7379
   XY=              3.4427   XZ=              2.2184   YZ=             -1.3353
 Traceless Quadrupole moment (field-independent basis, Debye-Ang):
   XX=              4.0215   YY=              3.8899   ZZ=             -7.9114
   XY=              3.4427   XZ=              2.2184   YZ=             -1.3353
 Octapole moment (field-independent basis, Debye-Ang**2):
  XXX=           -103.9292  YYY=             -2.4176  ZZZ=              6.4198  XYY=            -21.4338
  XXY=            -12.1091  XXZ=             11.0438  XZZ=             17.1971  YZZ=             -1.5372
  YYZ=              4.7558  XYZ=             -3.9986
 Hexadecapole moment (field-independent basis, Debye-Ang**3):
 XXXX=          -2959.3408 YYYY=           -628.7317 ZZZZ=           -173.5264 XXXY=            -19.0545
 XXXZ=             37.8126 YYYX=             12.4826 YYYZ=             -6.6202 ZZZX=             17.2203
 ZZZY=             -5.5066 XXYY=           -602.5148 XXZZ=           -610.3929 YYZZ=           -157.7508
 XXYZ=            -10.3495 YYXZ=             12.3249 ZZXY=              2.0467
 N-N= 9.833106692087D+02 E-N=-4.433175852076D+03  KE= 1.042440264364D+03
 Evaluate density.
 Using the total density.
 Monte-Carlo method of calculating molar volume:
 based on  0.001 e/bohr**3 density envelope.
 Number of points per bohr**3 =   20 CutOff= 1.00D-04
 Using the CI density.
 There are       420 points.  Will hold       420 in memory.
 LenV=   805158466 MDV=   805306368.
 Box volume = 9292.119 fraction occupied=0.152
 Integrated density= 1.5555969090286050D+02 error= 4.7559690902860495D+01
 Molar volume = 1415.942 bohr**3/mol (126.357 cm**3/mol)
 Recommended a0 for SCRF calculation =  4.56 angstrom (  8.61 bohr)
 ******************************Gaussian NBO Version 3.1******************************
             N A T U R A L   A T O M I C   O R B I T A L   A N D
          N A T U R A L   B O N D   O R B I T A L   A N A L Y S I S
 ******************************Gaussian NBO Version 3.1******************************
       /RESON  / : Allow strongly delocalized NBO set

 Analyzing the CI density

 Job title: GNNTZHUFNOYUQO-UHFFFAOYSA-N_conf_0                              

 Storage needed:    154674 in NPA ( 805304168 available)


 NATURAL POPULATIONS:  Natural atomic orbital occupancies 
                                                          
   NAO  Atom  No  lang   Type(AO)    Occupancy
 --------------------------------------------
     1    O    1  S      Cor( 1S)     1.99988
     2    O    1  S      Val( 2S)     1.82807
     3    O    1  S      Ryd( 3S)     0.00112
     4    O    1  S      Ryd( 4S)     0.00013
     5    O    1  px     Val( 2p)     1.73257
     6    O    1  px     Ryd( 3p)     0.00072
     7    O    1  py     Val( 2p)     1.58067
     8    O    1  py     Ryd( 3p)     0.00087
     9    O    1  pz     Val( 2p)     1.76209
    10    O    1  pz     Ryd( 3p)     0.00047
    11    O    1  dxy    Ryd( 3d)     0.00582
    12    O    1  dxz    Ryd( 3d)     0.00206
    13    O    1  dyz    Ryd( 3d)     0.00406
    14    O    1  dx2y2  Ryd( 3d)     0.00599
    15    O    1  dz2    Ryd( 3d)     0.00209
 
    16    S    2  S      Cor( 1S)     2.00000
    17    S    2  S      Cor( 2S)     1.99912
    18    S    2  S      Val( 3S)     1.04271
    19    S    2  S      Ryd( 4S)     0.00504
    20    S    2  S      Ryd( 5S)     0.00029
    21    S    2  px     Cor( 2p)     1.99992
    22    S    2  px     Val( 3p)     0.88664
    23    S    2  px     Ryd( 4p)     0.01083
    24    S    2  py     Cor( 2p)     1.99989
    25    S    2  py     Val( 3p)     0.70324
    26    S    2  py     Ryd( 4p)     0.01374
    27    S    2  pz     Cor( 2p)     1.99987
    28    S    2  pz     Val( 3p)     0.75799
    29    S    2  pz     Ryd( 4p)     0.00904
    30    S    2  dxy    Ryd( 3d)     0.03190
    31    S    2  dxz    Ryd( 3d)     0.02132
    32    S    2  dyz    Ryd( 3d)     0.03696
    33    S    2  dx2y2  Ryd( 3d)     0.04235
    34    S    2  dz2    Ryd( 3d)     0.03582
 
    35    C    3  S      Cor( 1S)     1.99884
    36    C    3  S      Val( 2S)     0.92875
    37    C    3  S      Ryd( 3S)     0.00380
    38    C    3  S      Ryd( 4S)     0.00015
    39    C    3  px     Val( 2p)     1.04287
    40    C    3  px     Ryd( 3p)     0.00987
    41    C    3  py     Val( 2p)     1.00969
    42    C    3  py     Ryd( 3p)     0.01581
    43    C    3  pz     Val( 2p)     1.12997
    44    C    3  pz     Ryd( 3p)     0.00455
    45    C    3  dxy    Ryd( 3d)     0.00076
    46    C    3  dxz    Ryd( 3d)     0.00089
    47    C    3  dyz    Ryd( 3d)     0.00114
    48    C    3  dx2y2  Ryd( 3d)     0.00178
    49    C    3  dz2    Ryd( 3d)     0.00037
 
    50    N    4  S      Cor( 1S)     1.99929
    51    N    4  S      Val( 2S)     1.33614
    52    N    4  S      Ryd( 3S)     0.00110
    53    N    4  S      Ryd( 4S)     0.00002
    54    N    4  px     Val( 2p)     1.24141
    55    N    4  px     Ryd( 3p)     0.00425
    56    N    4  py     Val( 2p)     1.63641
    57    N    4  py     Ryd( 3p)     0.00601
    58    N    4  pz     Val( 2p)     1.25521
    59    N    4  pz     Ryd( 3p)     0.00478
    60    N    4  dxy    Ryd( 3d)     0.00303
    61    N    4  dxz    Ryd( 3d)     0.00061
    62    N    4  dyz    Ryd( 3d)     0.00291
    63    N    4  dx2y2  Ryd( 3d)     0.00294
    64    N    4  dz2    Ryd( 3d)     0.00214
 
    65    C    5  S      Cor( 1S)     1.99904
    66    C    5  S      Val( 2S)     0.83941
    67    C    5  S      Ryd( 3S)     0.00180
    68    C    5  S      Ryd( 4S)     0.00011
    69    C    5  px     Val( 2p)     0.94757
    70    C    5  px     Ryd( 3p)     0.00746
    71    C    5  py     Val( 2p)     1.06161
    72    C    5  py     Ryd( 3p)     0.00815
    73    C    5  pz     Val( 2p)     0.97044
    74    C    5  pz     Ryd( 3p)     0.00062
    75    C    5  dxy    Ryd( 3d)     0.00147
    76    C    5  dxz    Ryd( 3d)     0.00163
    77    C    5  dyz    Ryd( 3d)     0.00043
    78    C    5  dx2y2  Ryd( 3d)     0.00078
    79    C    5  dz2    Ryd( 3d)     0.00027
 
    80    C    6  S      Cor( 1S)     1.99905
    81    C    6  S      Val( 2S)     0.99007
    82    C    6  S      Ryd( 3S)     0.00105
    83    C    6  S      Ryd( 4S)     0.00006
    84    C    6  px     Val( 2p)     1.06833
    85    C    6  px     Ryd( 3p)     0.00495
    86    C    6  py     Val( 2p)     1.19285
    87    C    6  py     Ryd( 3p)     0.00523
    88    C    6  pz     Val( 2p)     0.81645
    89    C    6  pz     Ryd( 3p)     0.00178
    90    C    6  dxy    Ryd( 3d)     0.00080
    91    C    6  dxz    Ryd( 3d)     0.00075
    92    C    6  dyz    Ryd( 3d)     0.00041
    93    C    6  dx2y2  Ryd( 3d)     0.00072
    94    C    6  dz2    Ryd( 3d)     0.00039
 
    95    C    7  S      Cor( 1S)     1.99914
    96    C    7  S      Val( 2S)     0.98610
    97    C    7  S      Ryd( 3S)     0.00059
    98    C    7  S      Ryd( 4S)     0.00003
    99    C    7  px     Val( 2p)     1.12096
   100    C    7  px     Ryd( 3p)     0.00469
   101    C    7  py     Val( 2p)     1.14670
   102    C    7  py     Ryd( 3p)     0.00513
   103    C    7  pz     Val( 2p)     0.91481
   104    C    7  pz     Ryd( 3p)     0.00084
   105    C    7  dxy    Ryd( 3d)     0.00085
   106    C    7  dxz    Ryd( 3d)     0.00068
   107    C    7  dyz    Ryd( 3d)     0.00047
   108    C    7  dx2y2  Ryd( 3d)     0.00065
   109    C    7  dz2    Ryd( 3d)     0.00042
 
   110    C    8  S      Cor( 1S)     1.99915
   111    C    8  S      Val( 2S)     0.97670
   112    C    8  S      Ryd( 3S)     0.00068
   113    C    8  S      Ryd( 4S)     0.00003
   114    C    8  px     Val( 2p)     1.20878
   115    C    8  px     Ryd( 3p)     0.00543
   116    C    8  py     Val( 2p)     1.05671
   117    C    8  py     Ryd( 3p)     0.00485
   118    C    8  pz     Val( 2p)     1.01272
   119    C    8  pz     Ryd( 3p)     0.00151
   120    C    8  dxy    Ryd( 3d)     0.00065
   121    C    8  dxz    Ryd( 3d)     0.00046
   122    C    8  dyz    Ryd( 3d)     0.00051
   123    C    8  dx2y2  Ryd( 3d)     0.00077
   124    C    8  dz2    Ryd( 3d)     0.00043
 
   125    C    9  S      Cor( 1S)     1.99906
   126    C    9  S      Val( 2S)     0.97419
   127    C    9  S      Ryd( 3S)     0.00070
   128    C    9  S      Ryd( 4S)     0.00005
   129    C    9  px     Val( 2p)     1.06320
   130    C    9  px     Ryd( 3p)     0.00409
   131    C    9  py     Val( 2p)     1.19063
   132    C    9  py     Ryd( 3p)     0.00483
   133    C    9  pz     Val( 2p)     0.83060
   134    C    9  pz     Ryd( 3p)     0.00133
   135    C    9  dxy    Ryd( 3d)     0.00074
   136    C    9  dxz    Ryd( 3d)     0.00072
   137    C    9  dyz    Ryd( 3d)     0.00047
   138    C    9  dx2y2  Ryd( 3d)     0.00081
   139    C    9  dz2    Ryd( 3d)     0.00041
 
   140    C   10  S      Cor( 1S)     1.99902
   141    C   10  S      Val( 2S)     0.88425
   142    C   10  S      Ryd( 3S)     0.00086
   143    C   10  S      Ryd( 4S)     0.00006
   144    C   10  px     Val( 2p)     1.09234
   145    C   10  px     Ryd( 3p)     0.00426
   146    C   10  py     Val( 2p)     1.10513
   147    C   10  py     Ryd( 3p)     0.00540
   148    C   10  pz     Val( 2p)     1.00919
   149    C   10  pz     Ryd( 3p)     0.00095
   150    C   10  dxy    Ryd( 3d)     0.00062
   151    C   10  dxz    Ryd( 3d)     0.00070
   152    C   10  dyz    Ryd( 3d)     0.00066
   153    C   10  dx2y2  Ryd( 3d)     0.00074
   154    C   10  dz2    Ryd( 3d)     0.00034
 
   155    C   11  S      Cor( 1S)     1.99908
   156    C   11  S      Val( 2S)     0.94907
   157    C   11  S      Ryd( 3S)     0.00093
   158    C   11  S      Ryd( 4S)     0.00005
   159    C   11  px     Val( 2p)     1.06757
   160    C   11  px     Ryd( 3p)     0.00477
   161    C   11  py     Val( 2p)     1.17544
   162    C   11  py     Ryd( 3p)     0.00500
   163    C   11  pz     Val( 2p)     1.06336
   164    C   11  pz     Ryd( 3p)     0.00427
   165    C   11  dxy    Ryd( 3d)     0.00071
   166    C   11  dxz    Ryd( 3d)     0.00050
   167    C   11  dyz    Ryd( 3d)     0.00034
   168    C   11  dx2y2  Ryd( 3d)     0.00066
   169    C   11  dz2    Ryd( 3d)     0.00043
 
   170    C   12  S      Cor( 1S)     1.99899
   171    C   12  S      Val( 2S)     0.98063
   172    C   12  S      Ryd( 3S)     0.00101
   173    C   12  S      Ryd( 4S)     0.00005
   174    C   12  px     Val( 2p)     1.14576
   175    C   12  px     Ryd( 3p)     0.00513
   176    C   12  py     Val( 2p)     1.14821
   177    C   12  py     Ryd( 3p)     0.00522
   178    C   12  pz     Val( 2p)     0.89827
   179    C   12  pz     Ryd( 3p)     0.00105
   180    C   12  dxy    Ryd( 3d)     0.00081
   181    C   12  dxz    Ryd( 3d)     0.00084
   182    C   12  dyz    Ryd( 3d)     0.00064
   183    C   12  dx2y2  Ryd( 3d)     0.00062
   184    C   12  dz2    Ryd( 3d)     0.00043
 
   185    F   13  S      Cor( 1S)     1.99997
   186    F   13  S      Val( 2S)     1.92777
   187    F   13  S      Ryd( 3S)     0.00252
   188    F   13  S      Ryd( 4S)     0.00012
   189    F   13  px     Val( 2p)     1.94780
   190    F   13  px     Ryd( 3p)     0.00018
   191    F   13  py     Val( 2p)     1.91708
   192    F   13  py     Ryd( 3p)     0.00010
   193    F   13  pz     Val( 2p)     1.70585
   194    F   13  pz     Ryd( 3p)     0.00049
   195    F   13  dxy    Ryd( 3d)     0.00033
   196    F   13  dxz    Ryd( 3d)     0.00169
   197    F   13  dyz    Ryd( 3d)     0.00183
   198    F   13  dx2y2  Ryd( 3d)     0.00034
   199    F   13  dz2    Ryd( 3d)     0.00218
 
   200    O   14  S      Cor( 1S)     1.99988
   201    O   14  S      Val( 2S)     1.82723
   202    O   14  S      Ryd( 3S)     0.00135
   203    O   14  S      Ryd( 4S)     0.00002
   204    O   14  px     Val( 2p)     1.78225
   205    O   14  px     Ryd( 3p)     0.00095
   206    O   14  py     Val( 2p)     1.62239
   207    O   14  py     Ryd( 3p)     0.00054
   208    O   14  pz     Val( 2p)     1.63831
   209    O   14  pz     Ryd( 3p)     0.00069
   210    O   14  dxy    Ryd( 3d)     0.00370
   211    O   14  dxz    Ryd( 3d)     0.00281
   212    O   14  dyz    Ryd( 3d)     0.00611
   213    O   14  dx2y2  Ryd( 3d)     0.00373
   214    O   14  dz2    Ryd( 3d)     0.00439
 
   215    H   15  S      Val( 1S)     0.72483
   216    H   15  S      Ryd( 2S)     0.00127
 
   217    H   16  S      Val( 1S)     0.73743
   218    H   16  S      Ryd( 2S)     0.00069
 
   219    H   17  S      Val( 1S)     0.73834
   220    H   17  S      Ryd( 2S)     0.00071
 
   221    H   18  S      Val( 1S)     0.74359
   222    H   18  S      Ryd( 2S)     0.00106
 
   223    H   19  S      Val( 1S)     0.75009
   224    H   19  S      Ryd( 2S)     0.00093
 
   225    H   20  S      Val( 1S)     0.71728
   226    H   20  S      Ryd( 2S)     0.00111

 WARNING:  1 low occupancy (<1.9990e) core orbital  found on  C    3
           1 low occupancy (<1.9990e) core orbital  found on  C   12


 Summary of Natural Population Analysis:                  
                                                          
                                       Natural Population 
                Natural  -----------------------------------------------
    Atom  No    Charge         Core      Valence    Rydberg      Total
 -----------------------------------------------------------------------
      O    1   -0.92660      1.99988     6.90339    0.02332     8.92660
      S    2    2.40331      9.99880     3.39059    0.20730    13.59669
      C    3   -0.14925      1.99884     4.11129    0.03912     6.14925
      N    4   -0.49626      1.99929     5.46917    0.02780     7.49626
      C    5    0.15920      1.99904     3.81904    0.02272     5.84080
      C    6   -0.08291      1.99905     4.06770    0.01616     6.08291
      C    7   -0.18208      1.99914     4.16857    0.01436     6.18208
      C    8   -0.26935      1.99915     4.25490    0.01531     6.26935
      C    9   -0.07182      1.99906     4.05861    0.01414     6.07182
      C   10   -0.10452      1.99902     4.09091    0.01459     6.10452
      C   11   -0.27220      1.99908     4.25544    0.01768     6.27220
      C   12   -0.18765      1.99899     4.17286    0.01581     6.18765
      F   13   -0.50824      1.99997     7.49850    0.00977     9.50824
      O   14   -0.89432      1.99988     6.87017    0.02427     8.89432
      H   15    0.27390      0.00000     0.72483    0.00127     0.72610
      H   16    0.26188      0.00000     0.73743    0.00069     0.73812
      H   17    0.26096      0.00000     0.73834    0.00071     0.73904
      H   18    0.25535      0.00000     0.74359    0.00106     0.74465
      H   19    0.24898      0.00000     0.75009    0.00093     0.75102
      H   20    0.28161      0.00000     0.71728    0.00111     0.71839
 =======================================================================
   * Total *   -0.00000     35.98918    71.54268    0.46813   108.00000

                                 Natural Population      
 --------------------------------------------------------
   Core                      35.98918 ( 99.9700% of  36)
   Valence                   71.54268 ( 99.3648% of  72)
   Natural Minimal Basis    107.53187 ( 99.5665% of 108)
   Natural Rydberg Basis      0.46813 (  0.4335% of 108)
 --------------------------------------------------------

    Atom  No          Natural Electron Configuration
 ----------------------------------------------------------------------------
      O    1      [core]2S( 1.83)2p( 5.08)3d( 0.02)
      S    2      [core]3S( 1.04)3p( 2.35)4S( 0.01)3d( 0.17)4p( 0.03)
      C    3      [core]2S( 0.93)2p( 3.18)3p( 0.03)
      N    4      [core]2S( 1.34)2p( 4.13)3p( 0.02)3d( 0.01)
      C    5      [core]2S( 0.84)2p( 2.98)3p( 0.02)
      C    6      [core]2S( 0.99)2p( 3.08)3p( 0.01)
      C    7      [core]2S( 0.99)2p( 3.18)3p( 0.01)
      C    8      [core]2S( 0.98)2p( 3.28)3p( 0.01)
      C    9      [core]2S( 0.97)2p( 3.08)3p( 0.01)
      C   10      [core]2S( 0.88)2p( 3.21)3p( 0.01)
      C   11      [core]2S( 0.95)2p( 3.31)3p( 0.01)
      C   12      [core]2S( 0.98)2p( 3.19)3p( 0.01)
      F   13      [core]2S( 1.93)2p( 5.57)3d( 0.01)
      O   14      [core]2S( 1.83)2p( 5.04)3d( 0.02)
      H   15            1S( 0.72)
      H   16            1S( 0.74)
      H   17            1S( 0.74)
      H   18            1S( 0.74)
      H   19            1S( 0.75)
      H   20            1S( 0.72)


 NBO analysis skipped by request.
 1\1\GINC-DELLA-R2C4N7\SP\RAPFD TD-FC\6-31G(d)\C9H6F1N1O2S1\SHIVAANI\13
 -Feb-2024\0\\# TD(NStates=10, Root=1) APFD/6-31G* volume pop=NPA densi
 ty=current Geom=AllCheck Guess=Read\\GNNTZHUFNOYUQO-UHFFFAOYSA-N_conf_
 0\\0,1\O,0,4.3591035816,0.3493291524,-0.4664652907\S,0,3.4343664882,0.
 6625625281,0.6008470482\C,0,1.7674537775,0.2449310345,0.0675514922\N,0
 ,0.8308818933,0.4507770318,0.9501462005\C,0,-0.4379593666,0.1374162399
 ,0.5890484172\C,0,-1.4791705869,0.3513280212,1.5250800989\C,0,-2.77501
 90834,0.04236937,1.1900591635\C,0,-3.0835278663,-0.4902426223,-0.08599
 21873\C,0,-2.0921094297,-0.7079456853,-1.0125909633\C,0,-0.745625241,-
 0.399894144,-0.7001990039\C,0,0.3214967729,-0.5983489465,-1.6059026256
 \C,0,1.6039326801,-0.2747038191,-1.2326558204\F,0,3.2890681681,2.26246
 01406,0.6136035255\O,0,3.6606923219,0.2614059092,1.9661405036\H,0,-1.2
 127032194,0.7593617806,2.4954823667\H,0,-3.5752193267,0.2055767736,1.9
 072921464\H,0,-4.1158152992,-0.7278354369,-0.3297879766\H,0,-2.3261990
 655,-1.1170883658,-1.992844742\H,0,0.1169523069,-1.0067625104,-2.59308
 52556\H,0,2.459400494,-0.4046964518,-1.8857270972\\Version=ES64L-G16Re
 vA.03\State=1-A\HF=-1049.1340724\RMSD=8.363e-09\Dipole=-3.9724428,-0.6
 850611,-0.9393691\Quadrupole=3.0399993,-3.655555,0.6155557,1.6664347,-
 3.4593929,3.1576783\PG=C01 [X(C9H6F1N1O2S1)]\\@


 IF THE FACTS DO NOT CONFORM TO THE THEORY, THEY MUST BE DISPOSED OF.
 Job cpu time:       0 days  0 hours 16 minutes 53.2 seconds.
 Elapsed time:       0 days  0 hours  5 minutes 47.8 seconds.
 File lengths (MBytes):  RWF=    453 Int=      0 D2E=      0 Chk=    268 Scr=      1
 Normal termination of Gaussian 16 at Tue Feb 13 13:47:37 2024.
