 Entering Gaussian System, Link 0=g16
 Input=MCJUWZWWFSIMHG-UHFFFAOYSA-N_conf_0.gjf
 Output=MCJUWZWWFSIMHG-UHFFFAOYSA-N_conf_0.log
 Initial command:
 /opt/export/g16/l1.exe "/tmp/Gau-3493085.inp" -scrdir="/tmp/"
 Entering Link 1 = /opt/export/g16/l1.exe PID=   3493087.
  
 Copyright (c) 1988,1990,1992,1993,1995,1998,2003,2009,2016,
            Gaussian, Inc.  All Rights Reserved.
  
 This is part of the Gaussian(R) 16 program.  It is based on
 the Gaussian(R) 09 system (copyright 2009, Gaussian, Inc.),
 the Gaussian(R) 03 system (copyright 2003, Gaussian, Inc.),
 the Gaussian(R) 98 system (copyright 1998, Gaussian, Inc.),
 the Gaussian(R) 94 system (copyright 1995, Gaussian, Inc.),
 the Gaussian 92(TM) system (copyright 1992, Gaussian, Inc.),
 the Gaussian 90(TM) system (copyright 1990, Gaussian, Inc.),
 the Gaussian 88(TM) system (copyright 1988, Gaussian, Inc.),
 the Gaussian 86(TM) system (copyright 1986, Carnegie Mellon
 University), and the Gaussian 82(TM) system (copyright 1983,
 Carnegie Mellon University). Gaussian is a federally registered
 trademark of Gaussian, Inc.
  
 This software contains proprietary and confidential information,
 including trade secrets, belonging to Gaussian, Inc.
  
 This software is provided under written license and may be
 used, copied, transmitted, or stored only in accord with that
 written license.
  
 The following legend is applicable only to US Government
 contracts under FAR:
  
                    RESTRICTED RIGHTS LEGEND
  
 Use, reproduction and disclosure by the US Government is
 subject to restrictions as set forth in subparagraphs (a)
 and (c) of the Commercial Computer Software - Restricted
 Rights clause in FAR 52.227-19.
  
 Gaussian, Inc.
 340 Quinnipiac St., Bldg. 40, Wallingford CT 06492
  
  
 ---------------------------------------------------------------
 Warning -- This program may not be used in any manner that
 competes with the business of Gaussian, Inc. or will provide
 assistance to any competitor of Gaussian, Inc.  The licensee
 of this program is prohibited from giving any competitor of
 Gaussian, Inc. access to this program.  By using this program,
 the user acknowledges that Gaussian, Inc. is engaged in the
 business of creating and licensing software in the field of
 computational chemistry and represents and warrants to the
 licensee that it is not a competitor of Gaussian, Inc. and that
 it will not use this program in any manner prohibited above.
 ---------------------------------------------------------------
  

 Cite this work as:
 Gaussian 16, Revision A.03,
 M. J. Frisch, G. W. Trucks, H. B. Schlegel, G. E. Scuseria, 
 M. A. Robb, J. R. Cheeseman, G. Scalmani, V. Barone, 
 G. A. Petersson, H. Nakatsuji, X. Li, M. Caricato, A. V. Marenich, 
 J. Bloino, B. G. Janesko, R. Gomperts, B. Mennucci, H. P. Hratchian, 
 J. V. Ortiz, A. F. Izmaylov, J. L. Sonnenberg, D. Williams-Young, 
 F. Ding, F. Lipparini, F. Egidi, J. Goings, B. Peng, A. Petrone, 
 T. Henderson, D. Ranasinghe, V. G. Zakrzewski, J. Gao, N. Rega, 
 G. Zheng, W. Liang, M. Hada, M. Ehara, K. Toyota, R. Fukuda, 
 J. Hasegawa, M. Ishida, T. Nakajima, Y. Honda, O. Kitao, H. Nakai, 
 T. Vreven, K. Throssell, J. A. Montgomery, Jr., J. E. Peralta, 
 F. Ogliaro, M. J. Bearpark, J. J. Heyd, E. N. Brothers, K. N. Kudin, 
 V. N. Staroverov, T. A. Keith, R. Kobayashi, J. Normand, 
 K. Raghavachari, A. P. Rendell, J. C. Burant, S. S. Iyengar, 
 J. Tomasi, M. Cossi, J. M. Millam, M. Klene, C. Adamo, R. Cammi, 
 J. W. Ochterski, R. L. Martin, K. Morokuma, O. Farkas, 
 J. B. Foresman, and D. J. Fox, Gaussian, Inc., Wallingford CT, 2016.
 
 ******************************************
 Gaussian 16:  ES64L-G16RevA.03 25-Dec-2016
                26-Feb-2024 
 ******************************************
 %nprocshared=2
 Will use up to    2 processors via shared memory.
 %mem=4GB
 %Chk=MCJUWZWWFSIMHG-UHFFFAOYSA-N_conf_0_0.chk
 --------------------------------
 # opt=CalcFc APFD/6-31G* scf=xqc
 --------------------------------
 1/10=4,18=20,19=15,26=3,38=1/1,3;
 2/9=110,12=2,17=6,18=5,40=1/2;
 3/5=1,6=6,7=1,11=2,25=1,30=1,71=2,74=-44,140=1/1,2,3;
 4//1;
 5/5=2,8=3,13=1,38=5/2,8;
 8/6=4,10=90,11=11/1;
 11/6=1,8=1,9=11,15=111,16=1/1,2,10;
 10/6=1,13=1/2;
 6/7=2,8=2,9=2,10=2,28=1/1;
 7/10=1,18=20,25=1/1,2,3,16;
 1/10=4,18=20,19=15,26=3/3(2);
 2/9=110/2;
 99//99;
 2/9=110/2;
 3/5=1,6=6,7=1,11=2,25=1,30=1,71=1,74=-44/1,2,3;
 4/5=5,16=3,69=1/1;
 5/5=2,8=3,13=1,38=5/2,8;
 7//1,2,3,16;
 1/18=20,19=15,26=3/3(-5);
 2/9=110/2;
 6/7=2,8=2,9=2,10=2,19=2,28=1/1;
 99/9=1/99;
 ----------------------------------
 MCJUWZWWFSIMHG-UHFFFAOYSA-N_conf_0
 ----------------------------------
 Symbolic Z-matrix:
 Charge =  0 Multiplicity = 1
 F                     3.52814  -1.59133  -0.16197 
 S                     3.11054  -0.17515   0.44416 
 C                     1.34984  -0.04693   0.20228 
 N                     0.79058   1.10443   0.66152 
 C                    -0.54406   1.23037   0.492 
 C                    -1.34167   0.26828  -0.11696 
 C                    -2.81975   0.49168  -0.23793 
 F                    -3.14292   1.79116  -0.47982 
 F                    -3.48833   0.1411    0.89336 
 F                    -3.38552  -0.22734  -1.24636 
 C                    -0.72289  -0.90714  -0.56782 
 C                     0.65134  -1.07427  -0.41153 
 O                     3.77015   0.79518  -0.40738 
 O                     3.37922  -0.2923    1.86395 
 H                    -0.96595   2.15964   0.87257 
 H                    -1.31277  -1.69105  -1.04181 
 H                     1.14406  -1.97632  -0.75828 
 

 GradGradGradGradGradGradGradGradGradGradGradGradGradGradGradGradGradGrad
 Berny optimization.
 Initialization pass.
                           ----------------------------
                           !    Initial Parameters    !
                           ! (Angstroms and Degrees)  !
 --------------------------                            --------------------------
 ! Name  Definition              Value          Derivative Info.                !
 --------------------------------------------------------------------------------
 ! R1    R(1,2)                  1.596          calculate D2E/DX2 analytically  !
 ! R2    R(2,3)                  1.7819         calculate D2E/DX2 analytically  !
 ! R3    R(2,13)                 1.4497         calculate D2E/DX2 analytically  !
 ! R4    R(2,14)                 1.4497         calculate D2E/DX2 analytically  !
 ! R5    R(3,4)                  1.3599         calculate D2E/DX2 analytically  !
 ! R6    R(3,12)                 1.3857         calculate D2E/DX2 analytically  !
 ! R7    R(4,5)                  1.3512         calculate D2E/DX2 analytically  !
 ! R8    R(5,6)                  1.3902         calculate D2E/DX2 analytically  !
 ! R9    R(5,15)                 1.0892         calculate D2E/DX2 analytically  !
 ! R10   R(6,7)                  1.4998         calculate D2E/DX2 analytically  !
 ! R11   R(6,11)                 1.4028         calculate D2E/DX2 analytically  !
 ! R12   R(7,8)                  1.3607         calculate D2E/DX2 analytically  !
 ! R13   R(7,9)                  1.36           calculate D2E/DX2 analytically  !
 ! R14   R(7,10)                 1.3616         calculate D2E/DX2 analytically  !
 ! R15   R(11,12)                1.3932         calculate D2E/DX2 analytically  !
 ! R16   R(11,16)                1.0896         calculate D2E/DX2 analytically  !
 ! R17   R(12,17)                1.0848         calculate D2E/DX2 analytically  !
 ! A1    A(1,2,3)              105.7145         calculate D2E/DX2 analytically  !
 ! A2    A(1,2,13)             104.5824         calculate D2E/DX2 analytically  !
 ! A3    A(1,2,14)             104.5798         calculate D2E/DX2 analytically  !
 ! A4    A(3,2,13)             108.7652         calculate D2E/DX2 analytically  !
 ! A5    A(3,2,14)             108.7768         calculate D2E/DX2 analytically  !
 ! A6    A(13,2,14)            123.0253         calculate D2E/DX2 analytically  !
 ! A7    A(2,3,4)              114.9269         calculate D2E/DX2 analytically  !
 ! A8    A(2,3,12)             120.3233         calculate D2E/DX2 analytically  !
 ! A9    A(4,3,12)             124.7497         calculate D2E/DX2 analytically  !
 ! A10   A(3,4,5)              116.2796         calculate D2E/DX2 analytically  !
 ! A11   A(4,5,6)              123.8585         calculate D2E/DX2 analytically  !
 ! A12   A(4,5,15)             114.7252         calculate D2E/DX2 analytically  !
 ! A13   A(6,5,15)             121.4163         calculate D2E/DX2 analytically  !
 ! A14   A(5,6,7)              119.8477         calculate D2E/DX2 analytically  !
 ! A15   A(5,6,11)             117.8783         calculate D2E/DX2 analytically  !
 ! A16   A(7,6,11)             122.2509         calculate D2E/DX2 analytically  !
 ! A17   A(6,7,8)              112.9951         calculate D2E/DX2 analytically  !
 ! A18   A(6,7,9)              112.2713         calculate D2E/DX2 analytically  !
 ! A19   A(6,7,10)             112.9906         calculate D2E/DX2 analytically  !
 ! A20   A(8,7,9)              106.0982         calculate D2E/DX2 analytically  !
 ! A21   A(8,7,10)             105.8999         calculate D2E/DX2 analytically  !
 ! A22   A(9,7,10)             106.0016         calculate D2E/DX2 analytically  !
 ! A23   A(6,11,12)            119.9726         calculate D2E/DX2 analytically  !
 ! A24   A(6,11,16)            120.2568         calculate D2E/DX2 analytically  !
 ! A25   A(12,11,16)           119.7706         calculate D2E/DX2 analytically  !
 ! A26   A(3,12,11)            117.2575         calculate D2E/DX2 analytically  !
 ! A27   A(3,12,17)            121.9482         calculate D2E/DX2 analytically  !
 ! A28   A(11,12,17)           120.7943         calculate D2E/DX2 analytically  !
 ! D1    D(1,2,3,4)            179.8218         calculate D2E/DX2 analytically  !
 ! D2    D(1,2,3,12)            -0.0689         calculate D2E/DX2 analytically  !
 ! D3    D(13,2,3,4)           -68.3501         calculate D2E/DX2 analytically  !
 ! D4    D(13,2,3,12)          111.7592         calculate D2E/DX2 analytically  !
 ! D5    D(14,2,3,4)            67.9915         calculate D2E/DX2 analytically  !
 ! D6    D(14,2,3,12)         -111.8992         calculate D2E/DX2 analytically  !
 ! D7    D(2,3,4,5)            179.9981         calculate D2E/DX2 analytically  !
 ! D8    D(12,3,4,5)            -0.1168         calculate D2E/DX2 analytically  !
 ! D9    D(2,3,12,11)          179.9884         calculate D2E/DX2 analytically  !
 ! D10   D(2,3,12,17)            0.0871         calculate D2E/DX2 analytically  !
 ! D11   D(4,3,12,11)            0.1091         calculate D2E/DX2 analytically  !
 ! D12   D(4,3,12,17)         -179.7922         calculate D2E/DX2 analytically  !
 ! D13   D(3,4,5,6)             -0.3066         calculate D2E/DX2 analytically  !
 ! D14   D(3,4,5,15)           179.7513         calculate D2E/DX2 analytically  !
 ! D15   D(4,5,6,7)            178.9954         calculate D2E/DX2 analytically  !
 ! D16   D(4,5,6,11)             0.7051         calculate D2E/DX2 analytically  !
 ! D17   D(15,5,6,7)            -1.0663         calculate D2E/DX2 analytically  !
 ! D18   D(15,5,6,11)         -179.3566         calculate D2E/DX2 analytically  !
 ! D19   D(5,6,7,8)             36.5754         calculate D2E/DX2 analytically  !
 ! D20   D(5,6,7,9)            -83.3785         calculate D2E/DX2 analytically  !
 ! D21   D(5,6,7,10)           156.7965         calculate D2E/DX2 analytically  !
 ! D22   D(11,6,7,8)          -145.2117         calculate D2E/DX2 analytically  !
 ! D23   D(11,6,7,9)            94.8344         calculate D2E/DX2 analytically  !
 ! D24   D(11,6,7,10)          -24.9906         calculate D2E/DX2 analytically  !
 ! D25   D(5,6,11,12)           -0.6857         calculate D2E/DX2 analytically  !
 ! D26   D(5,6,11,16)          179.3964         calculate D2E/DX2 analytically  !
 ! D27   D(7,6,11,12)         -178.9322         calculate D2E/DX2 analytically  !
 ! D28   D(7,6,11,16)            1.1499         calculate D2E/DX2 analytically  !
 ! D29   D(6,11,12,3)            0.3065         calculate D2E/DX2 analytically  !
 ! D30   D(6,11,12,17)        -179.791          calculate D2E/DX2 analytically  !
 ! D31   D(16,11,12,3)        -179.7752         calculate D2E/DX2 analytically  !
 ! D32   D(16,11,12,17)          0.1273         calculate D2E/DX2 analytically  !
 --------------------------------------------------------------------------------
 Trust Radius=3.00D-01 FncErr=1.00D-07 GrdErr=1.00D-06 EigMax=2.50D+02 EigMin=1.00D-04
 Number of steps in this run=     87 maximum allowed number of steps=    102.
 GradGradGradGradGradGradGradGradGradGradGradGradGradGradGradGradGradGrad

                          Input orientation:                          
 ---------------------------------------------------------------------
 Center     Atomic      Atomic             Coordinates (Angstroms)
 Number     Number       Type             X           Y           Z
 ---------------------------------------------------------------------
      1          9           0        3.528143   -1.591330   -0.161967
      2         16           0        3.110539   -0.175149    0.444158
      3          6           0        1.349841   -0.046926    0.202284
      4          7           0        0.790577    1.104425    0.661516
      5          6           0       -0.544060    1.230367    0.492001
      6          6           0       -1.341671    0.268281   -0.116960
      7          6           0       -2.819753    0.491681   -0.237927
      8          9           0       -3.142921    1.791164   -0.479818
      9          9           0       -3.488331    0.141100    0.893364
     10          9           0       -3.385518   -0.227343   -1.246360
     11          6           0       -0.722893   -0.907140   -0.567822
     12          6           0        0.651337   -1.074275   -0.411526
     13          8           0        3.770153    0.795178   -0.407380
     14          8           0        3.379216   -0.292304    1.863953
     15          1           0       -0.965954    2.159643    0.872570
     16          1           0       -1.312768   -1.691050   -1.041813
     17          1           0        1.144064   -1.976323   -0.758275
 ---------------------------------------------------------------------
                    Distance matrix (angstroms):
                    1          2          3          4          5
     1  F    0.000000
     2  S    1.596042   0.000000
     3  C    2.694971   1.781854   0.000000
     4  N    3.929312   2.658341   1.359882   0.000000
     5  C    4.997248   3.915846   2.302666   1.351240   0.000000
     6  C    5.212991   4.509286   2.728646   2.419017   1.390190
     7  C    6.681354   6.006518   4.227220   3.770800   2.501446
     8  F    7.486347   6.620111   4.901912   4.152909   2.830725
     9  F    7.303831   6.621698   4.890895   4.392130   3.164859
    10  F    7.129873   6.712625   4.955274   4.780519   3.636028
    11  C    4.324829   4.031763   2.372605   2.801474   2.392518
    12  C    2.933537   2.754686   1.385682   2.432599   2.748946
    13  O    2.411268   1.449738   2.634149   3.180573   4.428397
    14  O    2.411223   1.449734   2.634334   3.177697   4.426383
    15  H    5.944492   4.717265   3.268201   2.059959   1.089212
    16  H    4.921230   4.906293   3.367552   3.891024   3.387945
    17  H    2.487496   2.925252   2.165085   3.410538   3.833512
                    6          7          8          9         10
     6  C    0.000000
     7  C    1.499755   0.000000
     8  F    2.386491   1.360737   0.000000
     9  F    2.375937   1.360045   2.174316   0.000000
    10  F    2.387152   1.361625   2.172743   2.173646   0.000000
    11  C    1.402775   2.542116   3.625621   3.298715   2.830567
    12  C    2.421014   3.811931   4.755187   4.507408   4.208378
    13  O    5.147107   6.599066   6.984828   7.403063   7.276885
    14  O    5.150247   6.592400   7.236876   6.949323   7.445797
    15  H    2.167391   2.729811   2.589192   3.230686   4.005228
    16  H    2.166833   2.771561   3.973803   3.440168   2.545696
    17  H    3.410046   4.698260   5.713995   5.354482   4.879987
                   11         12         13         14         15
    11  C    0.000000
    12  C    1.393152   0.000000
    13  O    4.807399   3.636190   0.000000
    14  O    4.808206   3.637389   2.548411   0.000000
    15  H    3.396906   3.837025   5.092224   5.086786   0.000000
    16  H    1.089557   2.152994   5.693849   5.693389   4.314276
    17  H    2.159850   1.084761   3.834147   3.835089   4.921184
                   16         17
    16  H    0.000000
    17  H    2.489538   0.000000
 Stoichiometry    C6H3F4NO2S
 Framework group  C1[X(C6H3F4NO2S)]
 Deg. of freedom    45
 Full point group                 C1      NOp   1
 Largest Abelian subgroup         C1      NOp   1
 Largest concise Abelian subgroup C1      NOp   1
                         Standard orientation:                         
 ---------------------------------------------------------------------
 Center     Atomic      Atomic             Coordinates (Angstroms)
 Number     Number       Type             X           Y           Z
 ---------------------------------------------------------------------
      1          9           0       -3.393627    1.354508    0.005816
      2         16           0       -2.855939   -0.148229    0.001091
      3          6           0       -1.078378   -0.024760   -0.004526
      4          7           0       -0.421164   -1.215285   -0.005196
      5          6           0        0.928657   -1.153502   -0.009465
      6          6           0        1.649572    0.035116   -0.019257
      7          6           0        3.148774   -0.001014   -0.000510
      8          9           0        3.664781   -1.030982   -0.724740
      9          9           0        3.645347   -0.139006    1.258099
     10          9           0        3.714363    1.130077   -0.505251
     11          6           0        0.929631    1.239015   -0.009760
     12          6           0       -0.463339    1.216949   -0.005551
     13          8           0       -3.290021   -0.687207   -1.272808
     14          8           0       -3.281897   -0.692246    1.275585
     15          1           0        1.429010   -2.120980   -0.005610
     16          1           0        1.455591    2.193214   -0.006999
     17          1           0       -1.033370    2.139855   -0.001614
 ---------------------------------------------------------------------
 Rotational constants (GHZ):           1.8094543           0.2676720           0.2560618
 Standard basis: 6-31G(d) (6D, 7F)
 There are   220 symmetry adapted cartesian basis functions of A   symmetry.
 There are   220 symmetry adapted basis functions of A   symmetry.
   220 basis functions,   428 primitive gaussians,   220 cartesian basis functions
    57 alpha electrons       57 beta electrons
       nuclear repulsion energy      1057.5009562540 Hartrees.
 NAtoms=   17 NActive=   17 NUniq=   17 SFac= 1.00D+00 NAtFMM=   60 NAOKFM=F Big=F
 Integral buffers will be    131072 words long.
 Raffenetti 2 integral format.
 Two-electron integral symmetry is turned on.
 R6APFD:  NTU= -4 IXU= 1 FactS= 1.050
 Nuclear repulsion after empirical dispersion term =     1057.4830241736 Hartrees.
 One-electron integrals computed using PRISM.
 NBasis=   220 RedAO= T EigKep=  7.17D-04  NBF=   220
 NBsUse=   220 1.00D-06 EigRej= -1.00D+00 NBFU=   220
 ExpMin= 1.17D-01 ExpMax= 2.19D+04 ExpMxC= 3.30D+03 IAcc=3 IRadAn=         5 AccDes= 0.00D+00
 Harris functional with IExCor= 3731 and IRadAn=       5 diagonalized for initial guess.
 HarFok:  IExCor= 3731 AccDes= 0.00D+00 IRadAn=         5 IDoV= 1 UseB2=F ITyADJ=14
 ICtDFT=  3500011 ScaDFX=  1.000000  1.000000  1.000000  1.000000
 FoFCou: FMM=F IPFlag=           0 FMFlag=      100000 FMFlg1=           0
         NFxFlg=           0 DoJE=T BraDBF=F KetDBF=T FulRan=T
         wScrn=  0.000000 ICntrl=       500 IOpCl=  0 I1Cent=   200000004 NGrid=           0
         NMat0=    1 NMatS0=      1 NMatT0=    0 NMatD0=    1 NMtDS0=    0 NMtDT0=    0
 Petite list used in FoFCou.
 Keep R1 ints in memory in canonical form, NReq=300898340.
 Requested convergence on RMS density matrix=1.00D-08 within  32 cycles.
 Requested convergence on MAX density matrix=1.00D-06.
 Requested convergence on             energy=1.00D-06.
 No special actions if energy rises.
 Integral accuracy reduced to 1.0D-05 until final iterations.
 Initial convergence to 1.0D-05 achieved.  Increase integral accuracy.
 SCF Done:  E(RAPFD) =  -1232.40741765     A.U. after   15 cycles
            NFock= 15  Conv=0.61D-08     -V/T= 2.0065
 QCSCF skips out because SCF is already converged.
 DoSCS=F DFT=T ScalE2(SS,OS)=  1.000000  1.000000
 Range of M.O.s used for correlation:     1   220
 NBasis=   220 NAE=    57 NBE=    57 NFC=     0 NFV=     0
 NROrb=    220 NOA=    57 NOB=    57 NVA=   163 NVB=   163

 **** Warning!!: The largest alpha MO coefficient is  0.10953565D+02

 R6APFD:  NTU= -4 IXU= 1 FactS= 1.050
 Symmetrizing basis deriv contribution to polar:
 IMax=3 JMax=2 DiffMx= 0.00D+00
 G2DrvN: will do    18 centers at a time, making    1 passes.
 Calling FoFCou, ICntrl=  3107 FMM=F I1Cent=   0 AccDes= 0.00D+00.
 End of G2Drv F.D. properties file   721 does not exist.
 End of G2Drv F.D. properties file   722 does not exist.
 End of G2Drv F.D. properties file   788 does not exist.
          IDoAtm=11111111111111111
          Differentiating once with respect to nuclear coordinates.
 Keep R1 ints in memory in canonical form, NReq=300905577.
          There are    54 degrees of freedom in the 1st order CPHF.  IDoFFX=6 NUNeed=     0.
     48 vectors produced by pass  0 Test12= 1.72D-14 1.85D-09 XBig12= 3.13D-01 1.54D-01.
 AX will form    48 AO Fock derivatives at one time.
     48 vectors produced by pass  1 Test12= 1.72D-14 1.85D-09 XBig12= 2.95D-02 5.43D-02.
     48 vectors produced by pass  2 Test12= 1.72D-14 1.85D-09 XBig12= 5.69D-04 7.25D-03.
     48 vectors produced by pass  3 Test12= 1.72D-14 1.85D-09 XBig12= 8.10D-06 4.44D-04.
     48 vectors produced by pass  4 Test12= 1.72D-14 1.85D-09 XBig12= 3.13D-08 3.94D-05.
     48 vectors produced by pass  5 Test12= 1.72D-14 1.85D-09 XBig12= 4.46D-11 1.55D-06.
     24 vectors produced by pass  6 Test12= 1.72D-14 1.85D-09 XBig12= 6.56D-14 4.98D-08.
      1 vectors produced by pass  7 Test12= 1.72D-14 1.85D-09 XBig12= 7.39D-17 1.96D-09.
 InvSVY:  IOpt=1 It=  1 EMax= 3.89D-16
 Solved reduced A of dimension   313 with    54 vectors.
 End of Minotr F.D. properties file   721 does not exist.
 End of Minotr F.D. properties file   722 does not exist.
 End of Minotr F.D. properties file   788 does not exist.

 **********************************************************************

            Population analysis using the SCF density.

 **********************************************************************

 Orbital symmetries:
       Occupied  (A) (A) (A) (A) (A) (A) (A) (A) (A) (A) (A) (A)
                 (A) (A) (A) (A) (A) (A) (A) (A) (A) (A) (A) (A)
                 (A) (A) (A) (A) (A) (A) (A) (A) (A) (A) (A) (A)
                 (A) (A) (A) (A) (A) (A) (A) (A) (A) (A) (A) (A)
                 (A) (A) (A) (A) (A) (A) (A) (A) (A)
       Virtual   (A) (A) (A) (A) (A) (A) (A) (A) (A) (A) (A) (A)
                 (A) (A) (A) (A) (A) (A) (A) (A) (A) (A) (A) (A)
                 (A) (A) (A) (A) (A) (A) (A) (A) (A) (A) (A) (A)
                 (A) (A) (A) (A) (A) (A) (A) (A) (A) (A) (A) (A)
                 (A) (A) (A) (A) (A) (A) (A) (A) (A) (A) (A) (A)
                 (A) (A) (A) (A) (A) (A) (A) (A) (A) (A) (A) (A)
                 (A) (A) (A) (A) (A) (A) (A) (A) (A) (A) (A) (A)
                 (A) (A) (A) (A) (A) (A) (A) (A) (A) (A) (A) (A)
                 (A) (A) (A) (A) (A) (A) (A) (A) (A) (A) (A) (A)
                 (A) (A) (A) (A) (A) (A) (A) (A) (A) (A) (A) (A)
                 (A) (A) (A) (A) (A) (A) (A) (A) (A) (A) (A) (A)
                 (A) (A) (A) (A) (A) (A) (A) (A) (A) (A) (A) (A)
                 (A) (A) (A) (A) (A) (A) (A) (A) (A) (A) (A) (A)
                 (A) (A) (A) (A) (A) (A) (A)
 The electronic state is 1-A.
 Alpha  occ. eigenvalues --  -89.25003 -24.81150 -24.79780 -24.79712 -24.79309
 Alpha  occ. eigenvalues --  -19.22497 -19.22492 -14.43588 -10.49026 -10.33692
 Alpha  occ. eigenvalues --  -10.31028 -10.29656 -10.29545 -10.28848  -8.22863
 Alpha  occ. eigenvalues --   -6.17829  -6.17412  -6.17373  -1.34509  -1.30289
 Alpha  occ. eigenvalues --   -1.25744  -1.25494  -1.14435  -1.06198  -1.02002
 Alpha  occ. eigenvalues --   -0.89142  -0.86342  -0.78019  -0.72530  -0.70495
 Alpha  occ. eigenvalues --   -0.67437  -0.62251  -0.61684  -0.61480  -0.61333
 Alpha  occ. eigenvalues --   -0.55964  -0.54165  -0.53017  -0.52158  -0.50226
 Alpha  occ. eigenvalues --   -0.49122  -0.48801  -0.47541  -0.46864  -0.46233
 Alpha  occ. eigenvalues --   -0.46103  -0.44800  -0.44727  -0.43070  -0.42424
 Alpha  occ. eigenvalues --   -0.39900  -0.37163  -0.36512  -0.34826  -0.34426
 Alpha  occ. eigenvalues --   -0.32470  -0.32424
 Alpha virt. eigenvalues --   -0.09617  -0.07294  -0.00579   0.04170   0.05871
 Alpha virt. eigenvalues --    0.08611   0.09730   0.10380   0.12470   0.15694
 Alpha virt. eigenvalues --    0.15840   0.18741   0.19014   0.20308   0.22477
 Alpha virt. eigenvalues --    0.25391   0.27357   0.30144   0.32784   0.33694
 Alpha virt. eigenvalues --    0.36911   0.38695   0.39776   0.43592   0.46425
 Alpha virt. eigenvalues --    0.48812   0.52836   0.52936   0.53241   0.53936
 Alpha virt. eigenvalues --    0.55800   0.56384   0.58339   0.58539   0.61175
 Alpha virt. eigenvalues --    0.63965   0.68887   0.70602   0.71793   0.74971
 Alpha virt. eigenvalues --    0.76754   0.79163   0.79846   0.81194   0.81897
 Alpha virt. eigenvalues --    0.83431   0.84815   0.85762   0.85896   0.88648
 Alpha virt. eigenvalues --    0.94037   0.96496   0.97007   0.97204   1.01365
 Alpha virt. eigenvalues --    1.02983   1.04130   1.07231   1.07468   1.07929
 Alpha virt. eigenvalues --    1.08933   1.11273   1.13872   1.14987   1.17565
 Alpha virt. eigenvalues --    1.18703   1.19887   1.23466   1.26590   1.30082
 Alpha virt. eigenvalues --    1.30748   1.32459   1.32612   1.33290   1.36067
 Alpha virt. eigenvalues --    1.37229   1.37571   1.39492   1.40522   1.41022
 Alpha virt. eigenvalues --    1.43076   1.43913   1.46450   1.51031   1.57318
 Alpha virt. eigenvalues --    1.58988   1.60329   1.63437   1.64064   1.67273
 Alpha virt. eigenvalues --    1.69232   1.73638   1.74859   1.75552   1.76839
 Alpha virt. eigenvalues --    1.76880   1.77746   1.79922   1.81731   1.82923
 Alpha virt. eigenvalues --    1.83805   1.84112   1.84601   1.85984   1.87473
 Alpha virt. eigenvalues --    1.90222   1.93980   1.94544   1.95609   1.96656
 Alpha virt. eigenvalues --    1.98608   2.01404   2.01880   2.05358   2.06551
 Alpha virt. eigenvalues --    2.07464   2.08951   2.10043   2.10688   2.12725
 Alpha virt. eigenvalues --    2.15799   2.16198   2.18749   2.21172   2.23209
 Alpha virt. eigenvalues --    2.26743   2.28512   2.31582   2.34699   2.43672
 Alpha virt. eigenvalues --    2.47779   2.54653   2.56787   2.59125   2.61362
 Alpha virt. eigenvalues --    2.65275   2.68174   2.71879   2.72117   2.78347
 Alpha virt. eigenvalues --    2.80303   2.82888   2.86231   2.90790   2.98219
 Alpha virt. eigenvalues --    3.02008   3.08201   3.08994   3.30868   3.78392
 Alpha virt. eigenvalues --    3.83920   3.94038   4.02797   4.05571   4.13456
 Alpha virt. eigenvalues --    4.20570   4.22957   4.39183   4.41271   4.53087
 Alpha virt. eigenvalues --    4.56230   4.67615   5.47064
          Condensed to atoms (all electrons):
               1          2          3          4          5          6
     1  F    9.181528   0.198690  -0.029783   0.000448  -0.000010  -0.000005
     2  S    0.198690  13.472053   0.190961  -0.021313   0.000989   0.000180
     3  C   -0.029783   0.190961   5.285037   0.372759  -0.065914  -0.036067
     4  N    0.000448  -0.021313   0.372759   6.752903   0.438666  -0.014824
     5  C   -0.000010   0.000989  -0.065914   0.438666   4.907257   0.401837
     6  C   -0.000005   0.000180  -0.036067  -0.014824   0.401837   5.218223
     7  C   -0.000000  -0.000006   0.000149   0.003540  -0.013332   0.283303
     8  F    0.000000   0.000000   0.000005   0.000159   0.005038  -0.048637
     9  F   -0.000000   0.000000   0.000001  -0.000004  -0.000061  -0.050525
    10  F    0.000000   0.000000  -0.000010  -0.000010   0.002636  -0.046999
    11  C    0.000402   0.000487  -0.036329  -0.036737  -0.055644   0.490822
    12  C    0.004599  -0.024756   0.433650  -0.026686  -0.042986  -0.014921
    13  O   -0.036800   0.463971  -0.052179  -0.001361  -0.000056   0.000004
    14  O   -0.036806   0.464013  -0.052138  -0.001322  -0.000070   0.000006
    15  H    0.000000  -0.000198   0.006021  -0.045402   0.387795  -0.067133
    16  H    0.000001  -0.000008   0.004718  -0.000061   0.003979  -0.042177
    17  H    0.006545  -0.000343  -0.034377   0.003582   0.000283   0.003714
               7          8          9         10         11         12
     1  F   -0.000000   0.000000  -0.000000   0.000000   0.000402   0.004599
     2  S   -0.000006   0.000000   0.000000   0.000000   0.000487  -0.024756
     3  C    0.000149   0.000005   0.000001  -0.000010  -0.036329   0.433650
     4  N    0.003540   0.000159  -0.000004  -0.000010  -0.036737  -0.026686
     5  C   -0.013332   0.005038  -0.000061   0.002636  -0.055644  -0.042986
     6  C    0.283303  -0.048637  -0.050525  -0.046999   0.490822  -0.014921
     7  C    4.055317   0.284778   0.293071   0.286353  -0.029559   0.004975
     8  F    0.284778   9.098037  -0.039427  -0.038019   0.002687  -0.000038
     9  F    0.293071  -0.039427   9.096208  -0.039429  -0.000144  -0.000024
    10  F    0.286353  -0.038019  -0.039429   9.099690   0.004206   0.000470
    11  C   -0.029559   0.002687  -0.000144   0.004206   4.999662   0.450798
    12  C    0.004975  -0.000038  -0.000024   0.000470   0.450798   5.065540
    13  O   -0.000000  -0.000000   0.000000  -0.000000  -0.000100   0.000031
    14  O    0.000000   0.000000  -0.000000   0.000000  -0.000107   0.000053
    15  H    0.000280   0.004863   0.000214   0.000048   0.002813   0.000170
    16  H   -0.004311   0.000087   0.000170   0.006062   0.370242  -0.035833
    17  H   -0.000036   0.000000   0.000000   0.000000  -0.027954   0.356745
              13         14         15         16         17
     1  F   -0.036800  -0.036806   0.000000   0.000001   0.006545
     2  S    0.463971   0.464013  -0.000198  -0.000008  -0.000343
     3  C   -0.052179  -0.052138   0.006021   0.004718  -0.034377
     4  N   -0.001361  -0.001322  -0.045402  -0.000061   0.003582
     5  C   -0.000056  -0.000070   0.387795   0.003979   0.000283
     6  C    0.000004   0.000006  -0.067133  -0.042177   0.003714
     7  C   -0.000000   0.000000   0.000280  -0.004311  -0.000036
     8  F   -0.000000   0.000000   0.004863   0.000087   0.000000
     9  F    0.000000  -0.000000   0.000214   0.000170   0.000000
    10  F   -0.000000   0.000000   0.000048   0.006062   0.000000
    11  C   -0.000100  -0.000107   0.002813   0.370242  -0.027954
    12  C    0.000031   0.000053   0.000170  -0.035833   0.356745
    13  O    8.126420  -0.040105   0.000001   0.000000   0.000003
    14  O   -0.040105   8.126136   0.000001   0.000000   0.000004
    15  H    0.000001   0.000001   0.480951  -0.000119   0.000019
    16  H    0.000000   0.000000  -0.000119   0.474794  -0.004190
    17  H    0.000003   0.000004   0.000019  -0.004190   0.464823
 Mulliken charges:
               1
     1  F   -0.288811
     2  S    1.255279
     3  C    0.013498
     4  N   -0.424337
     5  C    0.029595
     6  C   -0.076799
     7  C    0.835478
     8  F   -0.269534
     9  F   -0.260050
    10  F   -0.274998
    11  C   -0.135545
    12  C   -0.171787
    13  O   -0.459828
    14  O   -0.459665
    15  H    0.229676
    16  H    0.226646
    17  H    0.231182
 Sum of Mulliken charges =  -0.00000
 Mulliken charges with hydrogens summed into heavy atoms:
               1
     1  F   -0.288811
     2  S    1.255279
     3  C    0.013498
     4  N   -0.424337
     5  C    0.259271
     6  C   -0.076799
     7  C    0.835478
     8  F   -0.269534
     9  F   -0.260050
    10  F   -0.274998
    11  C    0.091101
    12  C    0.059394
    13  O   -0.459828
    14  O   -0.459665
 APT charges:
               1
     1  F    0.017460
     2  S    0.116520
     3  C   -0.103281
     4  N   -0.423937
     5  C   -0.468361
     6  C   -0.233887
     7  C   -0.035834
     8  F    0.139378
     9  F    0.096411
    10  F    0.158114
    11  C   -0.584780
    12  C   -0.545211
    13  O    0.008672
    14  O    0.005437
    15  H    0.627458
    16  H    0.630664
    17  H    0.595178
 Sum of APT charges =  -0.00000
 APT charges with hydrogens summed into heavy atoms:
               1
     1  F    0.017460
     2  S    0.116520
     3  C   -0.103281
     4  N   -0.423937
     5  C    0.159097
     6  C   -0.233887
     7  C   -0.035834
     8  F    0.139378
     9  F    0.096411
    10  F    0.158114
    11  C    0.045884
    12  C    0.049967
    13  O    0.008672
    14  O    0.005437
 Electronic spatial extent (au):  <R**2>=           3824.5105
 Charge=             -0.0000 electrons
 Dipole moment (field-independent basis, Debye):
    X=              3.2458    Y=              3.0471    Z=             -0.0302  Tot=              4.4521
 Quadrupole moment (field-independent basis, Debye-Ang):
   XX=           -100.5788   YY=            -77.5520   ZZ=            -87.1445
   XY=             -6.2034   XZ=             -0.1063   YZ=              0.0167
 Traceless Quadrupole moment (field-independent basis, Debye-Ang):
   XX=            -12.1537   YY=             10.8731   ZZ=              1.2806
   XY=             -6.2034   XZ=             -0.1063   YZ=              0.0167
 Octapole moment (field-independent basis, Debye-Ang**2):
  XXX=             43.7956  YYY=             14.2621  ZZZ=             -0.5567  XYY=             17.7377
  XXY=             15.2636  XXZ=             -0.1576  XZZ=             19.7337  YZZ=              4.4624
  YYZ=              0.9490  XYZ=              0.0344
 Hexadecapole moment (field-independent basis, Debye-Ang**3):
 XXXX=          -3665.4784 YYYY=           -419.9276 ZZZZ=           -247.4873 XXXY=            -65.6807
 XXXZ=             -1.4275 YYYX=            -32.2076 YYYZ=              0.0714 ZZZX=             -2.4413
 ZZZY=              0.1096 XXYY=           -653.2186 XXZZ=           -664.8255 YYZZ=           -120.1265
 XXYZ=              0.2774 YYXZ=              2.7877 ZZXY=            -17.3409
 N-N= 1.057483024174D+03 E-N=-5.024536613679D+03  KE= 1.224466732538D+03
  Exact polarizability:   0.000   0.000   0.000   0.000   0.000   0.000
 Approx polarizability: 173.600   1.991 155.073  -0.329  -0.039  93.708
 R6APFD:  NTU= -4 IXU= 1 FactS= 1.050
 Calling FoFJK, ICntrl=    100147 FMM=F ISym2X=0 I1Cent= 0 IOpClX= 0 NMat=1 NMatS=1 NMatT=0.
 ***** Axes restored to original set *****
 -------------------------------------------------------------------
 Center     Atomic                   Forces (Hartrees/Bohr)
 Number     Number              X              Y              Z
 -------------------------------------------------------------------
      1        9          -0.013730452   -0.008392263   -0.006379339
      2       16           0.026129252    0.028471172    0.018023029
      3        6          -0.023709476    0.013042020    0.002190633
      4        7          -0.000910346   -0.024440611   -0.011288606
      5        6           0.023147465    0.005357632    0.006319847
      6        6           0.009138659   -0.010551537   -0.004418988
      7        6          -0.033680790    0.002887603   -0.004745165
      8        9           0.011671182   -0.011429993    0.004344620
      9        9           0.011894521    0.002115110   -0.007696871
     10        9           0.013184090    0.003140242    0.008957670
     11        6          -0.009712407    0.002806904   -0.000441133
     12        6          -0.004360791   -0.000735929   -0.000584038
     13        8          -0.006200791   -0.005485163    0.005610081
     14        8          -0.003715989    0.001593801   -0.009211053
     15        1          -0.000107804   -0.001500498   -0.001554639
     16        1           0.000358456    0.002653824    0.000588731
     17        1           0.000605219    0.000467684    0.000285222
 -------------------------------------------------------------------
 Cartesian Forces:  Max     0.033680790 RMS     0.011423887
 FormGI is forming the generalized inverse of G from B-inverse, IUseBI=4.

 GradGradGradGradGradGradGradGradGradGradGradGradGradGradGradGradGradGrad
 Berny optimization.
 Internal  Forces:  Max     0.038199407 RMS     0.008427071
 Search for a local minimum.
 Step number   1 out of a maximum of   87
 All quantities printed in internal units (Hartrees-Bohrs-Radians)
 Mixed Optimization -- RFO/linear search
 Second derivative matrix not updated -- analytic derivatives used.
 ITU=  0
     Eigenvalues ---   -0.00029   0.00027   0.01364   0.01517   0.01772
     Eigenvalues ---    0.01995   0.02445   0.02723   0.02819   0.03628
     Eigenvalues ---    0.11568   0.12153   0.12335   0.12900   0.13314
     Eigenvalues ---    0.13959   0.16248   0.16383   0.17251   0.17730
     Eigenvalues ---    0.17918   0.18530   0.19745   0.21257   0.22605
     Eigenvalues ---    0.23122   0.24937   0.25766   0.27502   0.31176
     Eigenvalues ---    0.34742   0.35124   0.36190   0.36257   0.37186
     Eigenvalues ---    0.38003   0.39895   0.42076   0.44478   0.47289
     Eigenvalues ---    0.49286   0.51831   0.52154   0.66841   0.67069
 RFO step:  Lambda=-1.63068737D-02 EMin=-2.88959862D-04
 Linear search not attempted -- first point.
 Iteration  1 RMS(Cart)=  0.10601261 RMS(Int)=  0.03130191
 Iteration  2 RMS(Cart)=  0.05260245 RMS(Int)=  0.00208321
 Iteration  3 RMS(Cart)=  0.00213850 RMS(Int)=  0.00033329
 Iteration  4 RMS(Cart)=  0.00000320 RMS(Int)=  0.00033329
 Iteration  5 RMS(Cart)=  0.00000000 RMS(Int)=  0.00033329
 Variable       Old X    -DE/DX   Delta X   Delta X   Delta X     New X
                                 (Linear)    (Quad)   (Total)
    R1        3.01608   0.00628   0.00000   0.02430   0.02430   3.04038
    R2        3.36722   0.00238   0.00000   0.02658   0.02658   3.39380
    R3        2.73961  -0.00979   0.00000  -0.01447  -0.01447   2.72514
    R4        2.73960  -0.00984   0.00000  -0.02026  -0.02026   2.71934
    R5        2.56980  -0.03283   0.00000  -0.07582  -0.07574   2.49406
    R6        2.61856   0.00345   0.00000   0.00704   0.00713   2.62569
    R7        2.55347  -0.02183   0.00000  -0.04485  -0.04486   2.50861
    R8        2.62708   0.00492   0.00000   0.00930   0.00922   2.63629
    R9        2.05831  -0.00178   0.00000  -0.00447  -0.00447   2.05384
   R10        2.83413  -0.00358   0.00000   0.01197   0.01197   2.84610
   R11        2.65086  -0.01414   0.00000  -0.02484  -0.02491   2.62595
   R12        2.57142  -0.01446   0.00000  -0.03487  -0.03487   2.53655
   R13        2.57011  -0.01279   0.00000  -0.03039  -0.03039   2.53973
   R14        2.57310  -0.01377   0.00000  -0.03477  -0.03477   2.53833
   R15        2.63267  -0.00445   0.00000  -0.00358  -0.00357   2.62911
   R16        2.05896  -0.00236   0.00000  -0.00710  -0.00710   2.05186
   R17        2.04990  -0.00021   0.00000  -0.00357  -0.00357   2.04633
    A1        1.84507  -0.03820   0.00000  -0.15258  -0.15264   1.69242
    A2        1.82531   0.01248   0.00000   0.03003   0.02928   1.85459
    A3        1.82526   0.01250   0.00000   0.03915   0.03971   1.86498
    A4        1.89831   0.00151   0.00000   0.01782   0.01695   1.91526
    A5        1.89851   0.00138   0.00000   0.03479   0.03424   1.93275
    A6        2.14720   0.00317   0.00000  -0.00057  -0.00159   2.14560
    A7        2.00585  -0.01273   0.00000  -0.05169  -0.05205   1.95380
    A8        2.10004   0.00465   0.00000   0.02799   0.02758   2.12761
    A9        2.17729   0.00808   0.00000   0.02378   0.02364   2.20093
   A10        2.02946   0.00001   0.00000   0.01313   0.01328   2.04274
   A11        2.16174  -0.00115   0.00000  -0.02468  -0.02474   2.13700
   A12        2.00233   0.00160   0.00000   0.03099   0.03101   2.03335
   A13        2.11911  -0.00045   0.00000  -0.00630  -0.00627   2.11284
   A14        2.09174   0.00048   0.00000  -0.00153  -0.00147   2.09027
   A15        2.05736   0.00479   0.00000   0.02563   0.02550   2.08287
   A16        2.13368  -0.00528   0.00000  -0.02423  -0.02416   2.10952
   A17        1.97214  -0.01049   0.00000  -0.03101  -0.03137   1.94077
   A18        1.95950  -0.00653   0.00000  -0.02232  -0.02267   1.93684
   A19        1.97206  -0.01003   0.00000  -0.02779  -0.02810   1.94396
   A20        1.85176   0.00860   0.00000   0.02486   0.02448   1.87625
   A21        1.84830   0.01221   0.00000   0.03769   0.03738   1.88569
   A22        1.85008   0.00929   0.00000   0.02769   0.02741   1.87749
   A23        2.09392  -0.00893   0.00000  -0.02100  -0.02103   2.07288
   A24        2.09888   0.00320   0.00000   0.00324   0.00326   2.10213
   A25        2.09039   0.00574   0.00000   0.01775   0.01777   2.10816
   A26        2.04653  -0.00281   0.00000  -0.01677  -0.01664   2.02989
   A27        2.12840   0.00059   0.00000  -0.00206  -0.00212   2.12627
   A28        2.10826   0.00221   0.00000   0.01882   0.01876   2.12701
    D1        3.13848   0.00004   0.00000  -0.27509  -0.27605   2.86243
    D2       -0.00120  -0.00007   0.00000  -0.31932  -0.31954  -0.32075
    D3       -1.19293  -0.00331   0.00000  -0.30596  -0.30634  -1.49928
    D4        1.95057  -0.00342   0.00000  -0.35019  -0.34983   1.60073
    D5        1.18668   0.00343   0.00000  -0.26208  -0.26185   0.92483
    D6       -1.95301   0.00332   0.00000  -0.30632  -0.30534  -2.25835
    D7        3.14156  -0.00011   0.00000  -0.05229  -0.05160   3.08995
    D8       -0.00204   0.00000   0.00000  -0.00582  -0.00591  -0.00794
    D9        3.14139   0.00008   0.00000   0.04708   0.04790  -3.09389
   D10        0.00152  -0.00005   0.00000   0.04878   0.04954   0.05106
   D11        0.00190  -0.00002   0.00000  -0.00166  -0.00194  -0.00004
   D12       -3.13797  -0.00015   0.00000   0.00004  -0.00031  -3.13828
   D13       -0.00535   0.00023   0.00000   0.01391   0.01394   0.00859
   D14        3.13725   0.00032   0.00000   0.01163   0.01155  -3.13438
   D15        3.12406  -0.00042   0.00000  -0.01864  -0.01875   3.10531
   D16        0.01231  -0.00034   0.00000  -0.01375  -0.01384  -0.00154
   D17       -0.01861  -0.00052   0.00000  -0.01619  -0.01624  -0.03485
   D18       -3.13036  -0.00043   0.00000  -0.01130  -0.01133   3.14149
   D19        0.63836  -0.00071   0.00000  -0.00522  -0.00524   0.63312
   D20       -1.45523   0.00036   0.00000   0.00086   0.00076  -1.45447
   D21        2.73661   0.00018   0.00000   0.00088   0.00083   2.73745
   D22       -2.53442  -0.00061   0.00000  -0.00943  -0.00934  -2.54377
   D23        1.65517   0.00045   0.00000  -0.00335  -0.00334   1.65183
   D24       -0.43617   0.00027   0.00000  -0.00333  -0.00327  -0.43944
   D25       -0.01197   0.00036   0.00000   0.00532   0.00529  -0.00668
   D26        3.13106   0.00043   0.00000   0.00746   0.00758   3.13863
   D27       -3.12296   0.00034   0.00000   0.00990   0.00983  -3.11313
   D28        0.02007   0.00041   0.00000   0.01203   0.01211   0.03218
   D29        0.00535  -0.00016   0.00000   0.00173   0.00198   0.00733
   D30       -3.13794  -0.00003   0.00000   0.00004   0.00032  -3.13762
   D31       -3.13767  -0.00023   0.00000  -0.00041  -0.00033  -3.13800
   D32        0.00222  -0.00010   0.00000  -0.00210  -0.00198   0.00024
         Item               Value     Threshold  Converged?
 Maximum Force            0.038199     0.000450     NO 
 RMS     Force            0.008427     0.000300     NO 
 Maximum Displacement     0.703654     0.001800     NO 
 RMS     Displacement     0.151353     0.001200     NO 
 Predicted change in Energy=-8.722347D-03
 GradGradGradGradGradGradGradGradGradGradGradGradGradGradGradGradGradGrad

                          Input orientation:                          
 ---------------------------------------------------------------------
 Center     Atomic      Atomic             Coordinates (Angstroms)
 Number     Number       Type             X           Y           Z
 ---------------------------------------------------------------------
      1          9           0        3.297959   -1.680649    0.139796
      2         16           0        3.099040   -0.114971    0.452270
      3          6           0        1.319039   -0.070432    0.217872
      4          7           0        0.781379    1.021026    0.729257
      5          6           0       -0.524697    1.187025    0.559344
      6          6           0       -1.315475    0.257710   -0.116862
      7          6           0       -2.799888    0.483745   -0.234059
      8          9           0       -3.081849    1.787260   -0.385953
      9          9           0       -3.439866    0.057579    0.868237
     10          9           0       -3.314696   -0.178265   -1.283331
     11          6           0       -0.725368   -0.887351   -0.637989
     12          6           0        0.644447   -1.068105   -0.475062
     13          8           0        3.749408    0.596635   -0.620222
     14          8           0        3.435593    0.080054    1.837717
     15          1           0       -0.957062    2.092063    0.977915
     16          1           0       -1.324342   -1.623784   -1.165107
     17          1           0        1.156380   -1.939540   -0.863826
 ---------------------------------------------------------------------
                    Distance matrix (angstroms):
                    1          2          3          4          5
     1  F    0.000000
     2  S    1.608900   0.000000
     3  C    2.552454   1.795920   0.000000
     4  N    3.738943   2.595913   1.319801   0.000000
     5  C    4.797112   3.852029   2.257690   1.327501   0.000000
     6  C    5.010677   4.466625   2.675890   2.386496   1.395067
     7  C    6.481367   5.968824   4.180540   3.747281   2.510096
     8  F    7.280437   6.521080   4.814918   4.093328   2.791575
     9  F    6.996453   6.554395   4.804846   4.332027   3.141541
    10  F    6.928901   6.644722   4.872037   4.718754   3.611588
    11  C    4.173900   4.051090   2.362087   2.789543   2.403521
    12  C    2.791843   2.791672   1.389454   2.415285   2.742719
    13  O    2.442838   1.442082   2.655950   3.287917   4.473020
    14  O    2.449888   1.439015   2.669521   3.026378   4.306219
    15  H    5.748131   4.647501   3.230277   2.056971   1.086846
    16  H    4.803299   4.945577   3.363480   3.875267   3.393201
    17  H    2.379211   2.972388   2.165663   3.382823   3.824506
                    6          7          8          9         10
     6  C    0.000000
     7  C    1.506091   0.000000
     8  F    2.352023   1.342283   0.000000
     9  F    2.350215   1.343966   2.166325   0.000000
    10  F    2.355337   1.343227   2.173200   2.168071   0.000000
    11  C    1.389591   2.519265   3.573523   3.245013   2.761139
    12  C    2.393196   3.785468   4.695352   4.444461   4.137624
    13  O    5.101105   6.561642   6.938194   7.361505   7.137349
    14  O    5.140485   6.583042   7.094809   6.943511   7.441376
    15  H    2.166067   2.729757   2.543179   3.211771   3.978199
    16  H    2.153814   2.736013   3.915499   3.381850   2.462724
    17  H    3.390565   4.681984   5.663920   5.302264   4.823753
                   11         12         13         14         15
    11  C    0.000000
    12  C    1.391263   0.000000
    13  O    4.714462   3.526076   0.000000
    14  O    4.937468   3.802329   2.531165   0.000000
    15  H    3.397313   3.829182   5.190492   4.907429   0.000000
    16  H    1.085798   2.158952   5.565079   5.880221   4.305224
    17  H    2.167736   1.082872   3.635289   4.070860   4.910445
                   16         17
    16  H    0.000000
    17  H    2.518820   0.000000
 Stoichiometry    C6H3F4NO2S
 Framework group  C1[X(C6H3F4NO2S)]
 Deg. of freedom    45
 Full point group                 C1      NOp   1
 Largest Abelian subgroup         C1      NOp   1
 Largest concise Abelian subgroup C1      NOp   1
                         Standard orientation:                         
 ---------------------------------------------------------------------
 Center     Atomic      Atomic             Coordinates (Angstroms)
 Number     Number       Type             X           Y           Z
 ---------------------------------------------------------------------
      1          9           0       -3.196898    1.335741    0.418719
      2         16           0       -2.840722   -0.164795   -0.039633
      3          6           0       -1.054063    0.009320    0.013890
      4          7           0       -0.444090   -1.161058    0.009166
      5          6           0        0.883155   -1.149797   -0.014345
      6          6           0        1.621454    0.033860   -0.023402
      7          6           0        3.126315   -0.023436   -0.002863
      8          9           0        3.582340   -1.061646   -0.721114
      9          9           0        3.585123   -0.167588    1.252111
     10          9           0        3.666012    1.099212   -0.505503
     11          6           0        0.954170    1.252669   -0.009261
     12          6           0       -0.437013    1.254214    0.005466
     13          8           0       -3.277665   -0.283227   -1.408813
     14          8           0       -3.298921   -1.040441    1.006341
     15          1           0        1.376260   -2.118284   -0.025066
     16          1           0        1.510987    2.184815   -0.013219
     17          1           0       -1.007674    2.174485    0.013197
 ---------------------------------------------------------------------
 Rotational constants (GHZ):           1.8005456           0.2761849           0.2633790
 Standard basis: 6-31G(d) (6D, 7F)
 There are   220 symmetry adapted cartesian basis functions of A   symmetry.
 There are   220 symmetry adapted basis functions of A   symmetry.
   220 basis functions,   428 primitive gaussians,   220 cartesian basis functions
    57 alpha electrons       57 beta electrons
       nuclear repulsion energy      1066.4467830400 Hartrees.
 NAtoms=   17 NActive=   17 NUniq=   17 SFac= 1.00D+00 NAtFMM=   60 NAOKFM=F Big=F
 Integral buffers will be    131072 words long.
 Raffenetti 2 integral format.
 Two-electron integral symmetry is turned on.
 R6APFD:  NTU= -4 IXU= 1 FactS= 1.050
 Nuclear repulsion after empirical dispersion term =     1066.4289270802 Hartrees.
 One-electron integrals computed using PRISM.
 NBasis=   220 RedAO= T EigKep=  7.02D-04  NBF=   220
 NBsUse=   220 1.00D-06 EigRej= -1.00D+00 NBFU=   220
 Initial guess from the checkpoint file:  "MCJUWZWWFSIMHG-UHFFFAOYSA-N_conf_0_0.chk"
 B after Tr=     0.000000    0.000000   -0.000000
         Rot=    0.998584   -0.053027   -0.000180    0.004158 Ang=  -6.10 deg.
 ExpMin= 1.17D-01 ExpMax= 2.19D+04 ExpMxC= 3.30D+03 IAcc=2 IRadAn=         4 AccDes= 0.00D+00
 Harris functional with IExCor= 3731 and IRadAn=       4 diagonalized for initial guess.
 HarFok:  IExCor= 3731 AccDes= 0.00D+00 IRadAn=         4 IDoV= 1 UseB2=F ITyADJ=14
 ICtDFT=  3500011 ScaDFX=  1.000000  1.000000  1.000000  1.000000
 FoFCou: FMM=F IPFlag=           0 FMFlag=      100000 FMFlg1=           0
         NFxFlg=           0 DoJE=T BraDBF=F KetDBF=T FulRan=T
         wScrn=  0.000000 ICntrl=       500 IOpCl=  0 I1Cent=   200000004 NGrid=           0
         NMat0=    1 NMatS0=      1 NMatT0=    0 NMatD0=    1 NMtDS0=    0 NMtDT0=    0
 Petite list used in FoFCou.
 Keep R1 ints in memory in canonical form, NReq=300898340.
 Requested convergence on RMS density matrix=1.00D-08 within  32 cycles.
 Requested convergence on MAX density matrix=1.00D-06.
 Requested convergence on             energy=1.00D-06.
 No special actions if energy rises.
 Integral accuracy reduced to 1.0D-05 until final iterations.
 Initial convergence to 1.0D-05 achieved.  Increase integral accuracy.
 SCF Done:  E(RAPFD) =  -1232.41532222     A.U. after   14 cycles
            NFock= 14  Conv=0.73D-08     -V/T= 2.0062
 QCSCF skips out because SCF is already converged.
 R6APFD:  NTU= -4 IXU= 1 FactS= 1.050
 Calling FoFJK, ICntrl=      2127 FMM=F ISym2X=0 I1Cent= 0 IOpClX= 0 NMat=1 NMatS=1 NMatT=0.
 ***** Axes restored to original set *****
 -------------------------------------------------------------------
 Center     Atomic                   Forces (Hartrees/Bohr)
 Number     Number              X              Y              Z
 -------------------------------------------------------------------
      1        9           0.001946660   -0.002619539   -0.000023278
      2       16          -0.000523585    0.001737646   -0.000725125
      3        6           0.001618669   -0.001709677    0.000315770
      4        7          -0.000299829    0.002968147    0.000737444
      5        6          -0.001703853    0.000433794    0.000573658
      6        6          -0.000349061    0.000383620    0.000026413
      7        6          -0.000032992   -0.000267894    0.000078932
      8        9          -0.000174478    0.000553701    0.000093548
      9        9          -0.000169101   -0.000097034    0.000249500
     10        9          -0.000320489   -0.000239416   -0.000338176
     11        6           0.000219310   -0.000722333   -0.000095170
     12        6          -0.001158075   -0.000281002   -0.000553001
     13        8           0.000874242    0.000009314   -0.000374200
     14        8           0.000021749   -0.000411163    0.000660343
     15        1          -0.000165064    0.000047437   -0.000344617
     16        1           0.000072325    0.000237869   -0.000190518
     17        1           0.000143572   -0.000023471   -0.000091521
 -------------------------------------------------------------------
 Cartesian Forces:  Max     0.002968147 RMS     0.000864758

 GradGradGradGradGradGradGradGradGradGradGradGradGradGradGradGradGradGrad
 Berny optimization.
 Using GEDIIS/GDIIS optimizer.
 FormGI is forming the generalized inverse of G from B-inverse, IUseBI=4.
 Internal  Forces:  Max     0.003971708 RMS     0.000920366
 Search for a local minimum.
 Step number   2 out of a maximum of   87
 All quantities printed in internal units (Hartrees-Bohrs-Radians)
 Mixed Optimization -- En-DIIS/RFO-DIIS
 Update second derivatives using D2CorX and points    1    2
 DE= -7.90D-03 DEPred=-8.72D-03 R= 9.06D-01
 TightC=F SS=  1.41D+00  RLast= 7.88D-01 DXNew= 5.0454D-01 2.3626D+00
 Trust test= 9.06D-01 RLast= 7.88D-01 DXMaxT set to 5.05D-01
 ITU=  1  0
 Use linear search instead of GDIIS.
     Eigenvalues ---   -0.00030   0.00027   0.01364   0.01517   0.01770
     Eigenvalues ---    0.01994   0.02445   0.02725   0.02818   0.03627
     Eigenvalues ---    0.11568   0.12149   0.12328   0.12894   0.13318
     Eigenvalues ---    0.13943   0.16258   0.16320   0.17360   0.17623
     Eigenvalues ---    0.17901   0.18539   0.20189   0.21865   0.22539
     Eigenvalues ---    0.23129   0.24937   0.25617   0.27541   0.31165
     Eigenvalues ---    0.34743   0.35120   0.36201   0.36259   0.37151
     Eigenvalues ---    0.37942   0.40540   0.42669   0.44433   0.47659
     Eigenvalues ---    0.49402   0.52051   0.52921   0.66921   0.67069
 RFO step:  Lambda=-3.56805547D-04 EMin=-2.95999868D-04
 Quartic linear search produced a step of -0.05923.
 Iteration  1 RMS(Cart)=  0.10580569 RMS(Int)=  0.05406094
 Iteration  2 RMS(Cart)=  0.09156567 RMS(Int)=  0.00605058
 Iteration  3 RMS(Cart)=  0.00624247 RMS(Int)=  0.00010185
 Iteration  4 RMS(Cart)=  0.00001982 RMS(Int)=  0.00010125
 Iteration  5 RMS(Cart)=  0.00000000 RMS(Int)=  0.00010125
 Variable       Old X    -DE/DX   Delta X   Delta X   Delta X     New X
                                 (Linear)    (Quad)   (Total)
    R1        3.04038   0.00280  -0.00144   0.00954   0.00810   3.04848
    R2        3.39380   0.00227  -0.00157   0.00867   0.00709   3.40089
    R3        2.72514   0.00068   0.00086   0.00361   0.00447   2.72961
    R4        2.71934   0.00058   0.00120  -0.00366  -0.00246   2.71689
    R5        2.49406   0.00397   0.00449   0.00345   0.00799   2.50205
    R6        2.62569   0.00121  -0.00042   0.00261   0.00225   2.62793
    R7        2.50861   0.00214   0.00266   0.00231   0.00496   2.51357
    R8        2.63629   0.00040  -0.00055   0.00053  -0.00007   2.63623
    R9        2.05384  -0.00003   0.00026  -0.00070  -0.00044   2.05340
   R10        2.84610   0.00067  -0.00071   0.00206   0.00135   2.84745
   R11        2.62595   0.00089   0.00148   0.00071   0.00214   2.62809
   R12        2.53655   0.00056   0.00207  -0.00131   0.00076   2.53731
   R13        2.53973   0.00032   0.00180  -0.00074   0.00106   2.54079
   R14        2.53833   0.00050   0.00206  -0.00066   0.00140   2.53973
   R15        2.62911   0.00047   0.00021  -0.00055  -0.00033   2.62877
   R16        2.05186  -0.00011   0.00042  -0.00044  -0.00002   2.05184
   R17        2.04633   0.00012   0.00021   0.00051   0.00072   2.04705
    A1        1.69242   0.00387   0.00904   0.00519   0.01422   1.70665
    A2        1.85459  -0.00134  -0.00173  -0.00908  -0.01075   1.84384
    A3        1.86498  -0.00163  -0.00235   0.00286   0.00043   1.86541
    A4        1.91526   0.00116  -0.00100  -0.00526  -0.00621   1.90905
    A5        1.93275  -0.00089  -0.00203   0.00502   0.00301   1.93576
    A6        2.14560  -0.00032   0.00009   0.00170   0.00186   2.14746
    A7        1.95380   0.00099   0.00308  -0.00003   0.00252   1.95632
    A8        2.12761   0.00042  -0.00163   0.00023  -0.00192   2.12570
    A9        2.20093  -0.00142  -0.00140  -0.00246  -0.00414   2.19678
   A10        2.04274   0.00012  -0.00079   0.00047  -0.00018   2.04257
   A11        2.13700  -0.00000   0.00147  -0.00015   0.00131   2.13831
   A12        2.03335   0.00026  -0.00184   0.00175  -0.00008   2.03326
   A13        2.11284  -0.00026   0.00037  -0.00160  -0.00122   2.11162
   A14        2.09027  -0.00005   0.00009   0.00458   0.00468   2.09495
   A15        2.08287   0.00002  -0.00151   0.00045  -0.00112   2.08175
   A16        2.10952   0.00003   0.00143  -0.00527  -0.00382   2.10570
   A17        1.94077   0.00005   0.00186   0.00051   0.00239   1.94316
   A18        1.93684  -0.00007   0.00134  -0.00204  -0.00068   1.93615
   A19        1.94396   0.00026   0.00166  -0.00223  -0.00055   1.94341
   A20        1.87625  -0.00011  -0.00145   0.00199   0.00056   1.87681
   A21        1.88569  -0.00003  -0.00221   0.00244   0.00025   1.88593
   A22        1.87749  -0.00012  -0.00162  -0.00044  -0.00205   1.87544
   A23        2.07288   0.00067   0.00125   0.00001   0.00126   2.07414
   A24        2.10213  -0.00038  -0.00019  -0.00045  -0.00065   2.10148
   A25        2.10816  -0.00029  -0.00105   0.00044  -0.00062   2.10754
   A26        2.02989   0.00062   0.00099   0.00167   0.00276   2.03266
   A27        2.12627  -0.00039   0.00013  -0.00277  -0.00271   2.12357
   A28        2.12701  -0.00022  -0.00111   0.00108  -0.00009   2.12692
    D1        2.86243  -0.00024   0.01635  -0.37206  -0.35558   2.50685
    D2       -0.32075  -0.00032   0.01893  -0.42786  -0.40892  -0.72967
    D3       -1.49928   0.00024   0.01815  -0.38115  -0.36296  -1.86223
    D4        1.60073   0.00016   0.02072  -0.43695  -0.41630   1.18443
    D5        0.92483   0.00006   0.01551  -0.37896  -0.36344   0.56138
    D6       -2.25835  -0.00003   0.01809  -0.43476  -0.41679  -2.67514
    D7        3.08995   0.00030   0.00306  -0.05205  -0.04906   3.04090
    D8       -0.00794   0.00033   0.00035   0.00650   0.00682  -0.00112
    D9       -3.09389  -0.00018  -0.00284   0.05119   0.04822  -3.04567
   D10        0.05106  -0.00015  -0.00293   0.05768   0.05462   0.10568
   D11       -0.00004  -0.00021   0.00012  -0.01281  -0.01263  -0.01267
   D12       -3.13828  -0.00018   0.00002  -0.00631  -0.00623   3.13868
   D13        0.00859  -0.00019  -0.00083   0.00697   0.00613   0.01472
   D14       -3.13438  -0.00000  -0.00068   0.00754   0.00685  -3.12752
   D15        3.10531  -0.00007   0.00111  -0.02096  -0.01985   3.08546
   D16       -0.00154  -0.00005   0.00082  -0.01326  -0.01242  -0.01396
   D17       -0.03485  -0.00026   0.00096  -0.02156  -0.02061  -0.05546
   D18        3.14149  -0.00025   0.00067  -0.01386  -0.01318   3.12831
   D19        0.63312  -0.00015   0.00031  -0.07733  -0.07702   0.55610
   D20       -1.45447   0.00001  -0.00005  -0.07882  -0.07885  -1.53332
   D21        2.73745   0.00003  -0.00005  -0.07540  -0.07544   2.66200
   D22       -2.54377  -0.00017   0.00055  -0.08504  -0.08449  -2.62826
   D23        1.65183  -0.00001   0.00020  -0.08652  -0.08633   1.56551
   D24       -0.43944   0.00001   0.00019  -0.08310  -0.08292  -0.52235
   D25       -0.00668   0.00017  -0.00031   0.00624   0.00594  -0.00074
   D26        3.13863   0.00017  -0.00045   0.00915   0.00870  -3.13586
   D27       -3.11313   0.00019  -0.00058   0.01383   0.01324  -3.09989
   D28        0.03218   0.00019  -0.00072   0.01674   0.01600   0.04818
   D29        0.00733  -0.00005  -0.00012   0.00564   0.00550   0.01283
   D30       -3.13762  -0.00008  -0.00002  -0.00086  -0.00092  -3.13854
   D31       -3.13800  -0.00006   0.00002   0.00272   0.00273  -3.13526
   D32        0.00024  -0.00009   0.00012  -0.00379  -0.00369  -0.00345
         Item               Value     Threshold  Converged?
 Maximum Force            0.003972     0.000450     NO 
 RMS     Force            0.000920     0.000300     NO 
 Maximum Displacement     0.877696     0.001800     NO 
 RMS     Displacement     0.192280     0.001200     NO 
 Predicted change in Energy=-2.526850D-04
 GradGradGradGradGradGradGradGradGradGradGradGradGradGradGradGradGradGrad

                          Input orientation:                          
 ---------------------------------------------------------------------
 Center     Atomic      Atomic             Coordinates (Angstroms)
 Number     Number       Type             X           Y           Z
 ---------------------------------------------------------------------
      1          9           0        3.283500   -1.712796    0.604253
      2         16           0        3.105591   -0.119122    0.428425
      3          6           0        1.316369   -0.093318    0.236476
      4          7           0        0.769437    0.967824    0.809098
      5          6           0       -0.535680    1.148052    0.626280
      6          6           0       -1.318100    0.263334   -0.116152
      7          6           0       -2.804764    0.482270   -0.227324
      8          9           0       -3.109785    1.789450   -0.194997
      9          9           0       -3.454985   -0.110645    0.789250
     10          9           0       -3.290726   -0.030727   -1.370533
     11          6           0       -0.718580   -0.844311   -0.705906
     12          6           0        0.648841   -1.036387   -0.537419
     13          8           0        3.727840    0.205334   -0.834098
     14          8           0        3.496892    0.484481    1.673243
     15          1           0       -0.972924    2.028786    1.088723
     16          1           0       -1.309147   -1.541838   -1.292100
     17          1           0        1.166221   -1.880386   -0.977218
 ---------------------------------------------------------------------
                    Distance matrix (angstroms):
                    1          2          3          4          5
     1  F    0.000000
     2  S    1.613185   0.000000
     3  C    2.574407   1.799674   0.000000
     4  N    3.680788   2.604607   1.324029   0.000000
     5  C    4.771904   3.860535   2.263411   1.330126   0.000000
     6  C    5.059525   4.473464   2.681786   2.389604   1.395031
     7  C    6.525090   5.976954   4.186903   3.752979   2.514090
     8  F    7.333391   6.531631   4.829267   4.090433   2.777031
     9  F    6.928802   6.570497   4.803299   4.359958   3.183272
    10  F    7.067502   6.645068   4.879726   4.715170   3.600980
    11  C    4.299701   4.054244   2.364972   2.791643   2.403681
    12  C    2.949979   2.794611   1.390643   2.417543   2.743912
    13  O    2.438343   1.444448   2.655280   3.468952   4.604239
    14  O    2.452816   1.437716   2.674477   2.901616   4.218779
    15  H    5.687820   4.656586   3.235818   2.059042   1.086614
    16  H    4.971699   4.947145   3.365723   3.877364   3.393220
    17  H    2.648020   2.973053   2.165459   3.385361   3.826109
                    6          7          8          9         10
     6  C    0.000000
     7  C    1.506806   0.000000
     8  F    2.354863   1.342685   0.000000
     9  F    2.350722   1.344529   2.167549   0.000000
    10  F    2.356098   1.343969   2.174321   2.167494   0.000000
    11  C    1.390723   2.518139   3.593826   3.203384   2.778414
    12  C    2.394910   3.785481   4.714856   4.411172   4.150375
    13  O    5.097089   6.566566   7.047764   7.370758   7.042993
    14  O    5.141496   6.582023   6.988665   7.033080   7.456659
    15  H    2.165108   2.734836   2.504275   3.290513   3.957492
    16  H    2.154433   2.732697   3.942513   3.314356   2.493243
    17  H    3.392465   4.681155   5.688918   5.254326   4.841519
                   11         12         13         14         15
    11  C    0.000000
    12  C    1.391086   0.000000
    13  O    4.570431   3.333186   0.000000
    14  O    5.019586   3.912986   2.533381   0.000000
    15  H    3.397068   3.830110   5.396240   4.765060   0.000000
    16  H    1.085789   2.158412   5.351039   5.999770   4.304733
    17  H    2.167842   1.083255   3.306449   4.248479   4.911791
                   16         17
    16  H    0.000000
    17  H    2.518176   0.000000
 Stoichiometry    C6H3F4NO2S
 Framework group  C1[X(C6H3F4NO2S)]
 Deg. of freedom    45
 Full point group                 C1      NOp   1
 Largest Abelian subgroup         C1      NOp   1
 Largest concise Abelian subgroup C1      NOp   1
                         Standard orientation:                         
 ---------------------------------------------------------------------
 Center     Atomic      Atomic             Coordinates (Angstroms)
 Number     Number       Type             X           Y           Z
 ---------------------------------------------------------------------
      1          9           0       -3.236799    1.078123    0.891453
      2         16           0       -2.843300   -0.143151   -0.086306
      3          6           0       -1.054650    0.018970    0.028903
      4          7           0       -0.446296   -1.156956    0.016404
      5          6           0        0.883250   -1.149349   -0.022128
      6          6           0        1.626428    0.031206   -0.031466
      7          6           0        3.131902   -0.025147   -0.002547
      8          9           0        3.592044   -1.117588   -0.633138
      9          9           0        3.586900   -0.065607    1.262008
     10          9           0        3.673346    1.054812   -0.591427
     11          6           0        0.962316    1.253024   -0.016443
     12          6           0       -0.428559    1.260502    0.006636
     13          8           0       -3.277027    0.257893   -1.404439
     14          8           0       -3.291328   -1.350583    0.552758
     15          1           0        1.373124   -2.118985   -0.045781
     16          1           0        1.522404    2.183125   -0.028735
     17          1           0       -0.995370    2.183581    0.016256
 ---------------------------------------------------------------------
 Rotational constants (GHZ):           1.7991518           0.2749401           0.2623415
 Standard basis: 6-31G(d) (6D, 7F)
 There are   220 symmetry adapted cartesian basis functions of A   symmetry.
 There are   220 symmetry adapted basis functions of A   symmetry.
   220 basis functions,   428 primitive gaussians,   220 cartesian basis functions
    57 alpha electrons       57 beta electrons
       nuclear repulsion energy      1064.8025089175 Hartrees.
 NAtoms=   17 NActive=   17 NUniq=   17 SFac= 1.00D+00 NAtFMM=   60 NAOKFM=F Big=F
 Integral buffers will be    131072 words long.
 Raffenetti 2 integral format.
 Two-electron integral symmetry is turned on.
 R6APFD:  NTU= -4 IXU= 1 FactS= 1.050
 Nuclear repulsion after empirical dispersion term =     1064.7845878510 Hartrees.
 One-electron integrals computed using PRISM.
 NBasis=   220 RedAO= T EigKep=  7.05D-04  NBF=   220
 NBsUse=   220 1.00D-06 EigRej= -1.00D+00 NBFU=   220
 Initial guess from the checkpoint file:  "MCJUWZWWFSIMHG-UHFFFAOYSA-N_conf_0_0.chk"
 B after Tr=    -0.000000    0.000000    0.000000
         Rot=    0.998446   -0.055720    0.000303   -0.000350 Ang=  -6.39 deg.
 ExpMin= 1.17D-01 ExpMax= 2.19D+04 ExpMxC= 3.30D+03 IAcc=2 IRadAn=         4 AccDes= 0.00D+00
 Harris functional with IExCor= 3731 and IRadAn=       4 diagonalized for initial guess.
 HarFok:  IExCor= 3731 AccDes= 0.00D+00 IRadAn=         4 IDoV= 1 UseB2=F ITyADJ=14
 ICtDFT=  3500011 ScaDFX=  1.000000  1.000000  1.000000  1.000000
 FoFCou: FMM=F IPFlag=           0 FMFlag=      100000 FMFlg1=           0
         NFxFlg=           0 DoJE=T BraDBF=F KetDBF=T FulRan=T
         wScrn=  0.000000 ICntrl=       500 IOpCl=  0 I1Cent=   200000004 NGrid=           0
         NMat0=    1 NMatS0=      1 NMatT0=    0 NMatD0=    1 NMtDS0=    0 NMtDT0=    0
 Petite list used in FoFCou.
 Keep R1 ints in memory in canonical form, NReq=300898340.
 Requested convergence on RMS density matrix=1.00D-08 within  32 cycles.
 Requested convergence on MAX density matrix=1.00D-06.
 Requested convergence on             energy=1.00D-06.
 No special actions if energy rises.
 Integral accuracy reduced to 1.0D-05 until final iterations.
 Initial convergence to 1.0D-05 achieved.  Increase integral accuracy.
 SCF Done:  E(RAPFD) =  -1232.41504705     A.U. after   15 cycles
            NFock= 15  Conv=0.60D-08     -V/T= 2.0062
 QCSCF skips out because SCF is already converged.
 R6APFD:  NTU= -4 IXU= 1 FactS= 1.050
 Calling FoFJK, ICntrl=      2127 FMM=F ISym2X=0 I1Cent= 0 IOpClX= 0 NMat=1 NMatS=1 NMatT=0.
 ***** Axes restored to original set *****
 -------------------------------------------------------------------
 Center     Atomic                   Forces (Hartrees/Bohr)
 Number     Number              X              Y              Z
 -------------------------------------------------------------------
      1        9          -0.001501186    0.000481223   -0.000338751
      2       16           0.003100679   -0.002875934   -0.001478461
      3        6          -0.000673452    0.005050800    0.001612847
      4        7          -0.000942956   -0.000221311   -0.001909959
      5        6          -0.000795406   -0.000982870    0.000913245
      6        6           0.000261464    0.000615548    0.000542704
      7        6          -0.000404940    0.000173177   -0.000320446
      8        9           0.000011500   -0.000122348    0.000021830
      9        9           0.000319712    0.000044125   -0.000123369
     10        9           0.000139527   -0.000010458    0.000013806
     11        6           0.000713161   -0.001239249    0.000087522
     12        6           0.000176938   -0.000077804    0.000651118
     13        8          -0.000900185   -0.000178617    0.000376676
     14        8          -0.000350044   -0.000218322    0.000449583
     15        1          -0.000028525   -0.000039500    0.000033123
     16        1           0.000010150    0.000049053   -0.000069870
     17        1           0.000863563   -0.000447512   -0.000461596
 -------------------------------------------------------------------
 Cartesian Forces:  Max     0.005050800 RMS     0.001124487

 GradGradGradGradGradGradGradGradGradGradGradGradGradGradGradGradGradGrad
 Berny optimization.
 Using GEDIIS/GDIIS optimizer.
 FormGI is forming the generalized inverse of G from B-inverse, IUseBI=4.
 Internal  Forces:  Max     0.006689189 RMS     0.001219316
 Search for a local minimum.
 Step number   3 out of a maximum of   87
 All quantities printed in internal units (Hartrees-Bohrs-Radians)
 Mixed Optimization -- RFO/linear search
 Update second derivatives using D2CorX and points    3    2
 DE=  2.75D-04 DEPred=-2.53D-04 R=-1.09D+00
 Trust test=-1.09D+00 RLast= 9.77D-01 DXMaxT set to 2.52D-01
 ITU= -1  1  0
 Use linear search instead of GDIIS.
     Eigenvalues ---    0.00027   0.00059   0.01396   0.01583   0.01914
     Eigenvalues ---    0.02081   0.02445   0.02780   0.02912   0.03667
     Eigenvalues ---    0.11576   0.12210   0.12335   0.12898   0.13324
     Eigenvalues ---    0.14243   0.16482   0.16914   0.17666   0.17933
     Eigenvalues ---    0.18553   0.20412   0.22179   0.22743   0.23281
     Eigenvalues ---    0.24690   0.25062   0.25795   0.28029   0.33980
     Eigenvalues ---    0.34785   0.35122   0.36235   0.36315   0.37162
     Eigenvalues ---    0.38754   0.41536   0.44415   0.46396   0.48698
     Eigenvalues ---    0.50055   0.52095   0.66327   0.67111   1.81024
 RFO step:  Lambda=-7.22701532D-05 EMin= 2.74894658D-04
 Quartic linear search produced a step of -0.78813.
 Iteration  1 RMS(Cart)=  0.09135041 RMS(Int)=  0.01927863
 Iteration  2 RMS(Cart)=  0.03145601 RMS(Int)=  0.00070872
 Iteration  3 RMS(Cart)=  0.00076744 RMS(Int)=  0.00003946
 Iteration  4 RMS(Cart)=  0.00000040 RMS(Int)=  0.00003946
 Variable       Old X    -DE/DX   Delta X   Delta X   Delta X     New X
                                 (Linear)    (Quad)   (Total)
    R1        3.04848  -0.00068  -0.00638   0.00172  -0.00466   3.04381
    R2        3.40089   0.00028  -0.00559   0.00298  -0.00261   3.39828
    R3        2.72961  -0.00076  -0.00352   0.00037  -0.00316   2.72646
    R4        2.71689   0.00020   0.00194  -0.00011   0.00182   2.71871
    R5        2.50205  -0.00056  -0.00630  -0.00021  -0.00652   2.49554
    R6        2.62793  -0.00038  -0.00177   0.00174  -0.00004   2.62790
    R7        2.51357   0.00054  -0.00391   0.00235  -0.00156   2.51202
    R8        2.63623  -0.00012   0.00005  -0.00096  -0.00090   2.63533
    R9        2.05340  -0.00001   0.00035  -0.00041  -0.00007   2.05333
   R10        2.84745  -0.00002  -0.00106   0.00040  -0.00066   2.84679
   R11        2.62809   0.00035  -0.00169   0.00171   0.00003   2.62811
   R12        2.53731  -0.00012  -0.00060  -0.00050  -0.00110   2.53621
   R13        2.54079  -0.00027  -0.00084   0.00021  -0.00063   2.54016
   R14        2.53973  -0.00006  -0.00110   0.00078  -0.00032   2.53941
   R15        2.62877  -0.00112   0.00026  -0.00141  -0.00114   2.62763
   R16        2.05184   0.00000   0.00001   0.00014   0.00015   2.05199
   R17        2.04705   0.00095  -0.00057   0.00050  -0.00007   2.04699
    A1        1.70665  -0.00354  -0.01121   0.00026  -0.01095   1.69569
    A2        1.84384   0.00113   0.00847  -0.00134   0.00713   1.85097
    A3        1.86541   0.00111  -0.00034  -0.00048  -0.00082   1.86459
    A4        1.90905  -0.00071   0.00489   0.00090   0.00579   1.91484
    A5        1.93576  -0.00003  -0.00237  -0.00089  -0.00326   1.93250
    A6        2.14746   0.00111  -0.00146   0.00123  -0.00024   2.14722
    A7        1.95632   0.00643  -0.00199   0.00862   0.00672   1.96304
    A8        2.12570  -0.00669   0.00151  -0.00780  -0.00622   2.11948
    A9        2.19678   0.00032   0.00327  -0.00075   0.00256   2.19935
   A10        2.04257  -0.00053   0.00014  -0.00013  -0.00001   2.04256
   A11        2.13831   0.00002  -0.00103   0.00024  -0.00078   2.13752
   A12        2.03326   0.00001   0.00007  -0.00021  -0.00014   2.03312
   A13        2.11162  -0.00003   0.00096  -0.00003   0.00093   2.11254
   A14        2.09495   0.00030  -0.00369   0.00533   0.00164   2.09659
   A15        2.08175   0.00012   0.00088  -0.00012   0.00077   2.08252
   A16        2.10570  -0.00042   0.00301  -0.00531  -0.00231   2.10339
   A17        1.94316   0.00014  -0.00188   0.00223   0.00035   1.94350
   A18        1.93615  -0.00038   0.00054   0.00005   0.00059   1.93674
   A19        1.94341  -0.00016   0.00043  -0.00212  -0.00169   1.94172
   A20        1.87681   0.00012  -0.00044   0.00136   0.00092   1.87773
   A21        1.88593   0.00008  -0.00020   0.00024   0.00005   1.88598
   A22        1.87544   0.00022   0.00162  -0.00178  -0.00016   1.87527
   A23        2.07414  -0.00046  -0.00099  -0.00013  -0.00112   2.07302
   A24        2.10148   0.00022   0.00051  -0.00002   0.00050   2.10198
   A25        2.10754   0.00023   0.00049   0.00014   0.00063   2.10817
   A26        2.03266   0.00054  -0.00218   0.00088  -0.00130   2.03135
   A27        2.12357  -0.00069   0.00213  -0.00105   0.00109   2.12465
   A28        2.12692   0.00015   0.00007   0.00017   0.00025   2.12717
    D1        2.50685  -0.00011   0.28024  -0.04352   0.23669   2.74354
    D2       -0.72967   0.00055   0.32229  -0.04273   0.27959  -0.45009
    D3       -1.86223  -0.00056   0.28606  -0.04463   0.24140  -1.62084
    D4        1.18443   0.00011   0.32810  -0.04384   0.28429   1.46872
    D5        0.56138   0.00031   0.28644  -0.04284   0.24357   0.80496
    D6       -2.67514   0.00098   0.32848  -0.04205   0.28646  -2.38867
    D7        3.04090   0.00068   0.03866   0.00545   0.04434   3.08523
    D8       -0.00112   0.00042  -0.00538   0.00505  -0.00035  -0.00147
    D9       -3.04567  -0.00111  -0.03800  -0.00503  -0.04288  -3.08856
   D10        0.10568  -0.00099  -0.04305  -0.00476  -0.04768   0.05799
   D11       -0.01267  -0.00009   0.00995  -0.00368   0.00625  -0.00641
   D12        3.13868   0.00003   0.00491  -0.00341   0.00146   3.14013
   D13        0.01472  -0.00055  -0.00483  -0.00238  -0.00715   0.00756
   D14       -3.12752  -0.00016  -0.00540   0.00019  -0.00519  -3.13271
   D15        3.08546   0.00039   0.01564  -0.00422   0.01142   3.09687
   D16       -0.01396   0.00036   0.00979  -0.00133   0.00842  -0.00553
   D17       -0.05546  -0.00001   0.01624  -0.00690   0.00936  -0.04609
   D18        3.12831  -0.00005   0.01039  -0.00402   0.00637   3.13469
   D19        0.55610  -0.00007   0.06070  -0.08710  -0.02641   0.52970
   D20       -1.53332  -0.00007   0.06215  -0.09034  -0.02820  -1.56152
   D21        2.66200   0.00002   0.05946  -0.08672  -0.02726   2.63474
   D22       -2.62826  -0.00002   0.06659  -0.08989  -0.02330  -2.65156
   D23        1.56551  -0.00002   0.06804  -0.09313  -0.02509   1.54042
   D24       -0.52235   0.00007   0.06535  -0.08951  -0.02416  -0.54651
   D25       -0.00074  -0.00000  -0.00468   0.00267  -0.00203  -0.00277
   D26       -3.13586  -0.00004  -0.00685   0.00412  -0.00272  -3.13858
   D27       -3.09989  -0.00006  -0.01044   0.00531  -0.00514  -3.10502
   D28        0.04818  -0.00009  -0.01261   0.00676  -0.00582   0.04236
   D29        0.01283  -0.00012  -0.00433  -0.00038  -0.00468   0.00814
   D30       -3.13854  -0.00024   0.00073  -0.00066   0.00013  -3.13841
   D31       -3.13526  -0.00008  -0.00215  -0.00184  -0.00399  -3.13926
   D32       -0.00345  -0.00021   0.00291  -0.00212   0.00082  -0.00263
         Item               Value     Threshold  Converged?
 Maximum Force            0.006689     0.000450     NO 
 RMS     Force            0.001219     0.000300     NO 
 Maximum Displacement     0.563352     0.001800     NO 
[...]
     4  N    0.001490   0.001494  -0.038410   0.000153   0.003314
     5  C   -0.000040   0.000096   0.358737   0.005022   0.000080
     6  C   -0.000018  -0.000014  -0.034000  -0.042346   0.003241
     7  C    0.000000  -0.000000  -0.003400  -0.004165  -0.000077
     8  F   -0.000000  -0.000000   0.007394   0.000103   0.000000
     9  F   -0.000000  -0.000000   0.000250   0.000179   0.000000
    10  F   -0.000000  -0.000000   0.000101   0.005960   0.000002
    11  C    0.000725  -0.000051   0.003259   0.366301  -0.025327
    12  C   -0.001039   0.000327   0.000541  -0.034051   0.364846
    13  O    8.136356  -0.038180   0.000000   0.000002   0.008858
    14  O   -0.038180   8.130149   0.000005   0.000000   0.000066
    15  H    0.000000   0.000005   0.446981  -0.000092   0.000009
    16  H    0.000002   0.000000  -0.000092   0.480769  -0.003061
    17  H    0.008858   0.000066   0.000009  -0.003061   0.435804
 Mulliken charges:
               1
     1  F   -0.292722
     2  S    1.252926
     3  C   -0.071571
     4  N   -0.329648
     5  C    0.069217
     6  C   -0.153860
     7  C    0.825616
     8  F   -0.270580
     9  F   -0.256736
    10  F   -0.265614
    11  C   -0.161220
    12  C   -0.146820
    13  O   -0.472350
    14  O   -0.453779
    15  H    0.254558
    16  H    0.219922
    17  H    0.252660
 Sum of Mulliken charges =  -0.00000
 Mulliken charges with hydrogens summed into heavy atoms:
               1
     1  F   -0.292722
     2  S    1.252926
     3  C   -0.071571
     4  N   -0.329648
     5  C    0.323776
     6  C   -0.153860
     7  C    0.825616
     8  F   -0.270580
     9  F   -0.256736
    10  F   -0.265614
    11  C    0.058701
    12  C    0.105841
    13  O   -0.472350
    14  O   -0.453779
 Electronic spatial extent (au):  <R**2>=           3729.1871
 Charge=             -0.0000 electrons
 Dipole moment (field-independent basis, Debye):
    X=              2.6785    Y=             -0.1321    Z=              0.5000  Tot=              2.7280
 Quadrupole moment (field-independent basis, Debye-Ang):
   XX=           -101.3775   YY=            -76.4929   ZZ=            -85.5036
   XY=             -0.2760   XZ=             -2.9290   YZ=             -1.1962
 Traceless Quadrupole moment (field-independent basis, Debye-Ang):
   XX=            -13.5862   YY=             11.2984   ZZ=              2.2877
   XY=             -0.2760   XZ=             -2.9290   YZ=             -1.1962
 Octapole moment (field-independent basis, Debye-Ang**2):
  XXX=             48.2869  YYY=             -4.8122  ZZZ=              7.0572  XYY=             23.5102
  XXY=             -5.0472  XXZ=             11.4304  XZZ=             10.6227  YZZ=             -0.7677
  YYZ=              3.9736  XYZ=              4.1062
 Hexadecapole moment (field-independent basis, Debye-Ang**3):
 XXXX=          -3568.2019 YYYY=           -424.1426 ZZZZ=           -227.4117 XXXY=             27.4047
 XXXZ=            -58.3725 YYYX=              6.5785 YYYZ=             -4.6473 ZZZX=            -22.0043
 ZZZY=             -4.6258 XXYY=           -666.6778 XXZZ=           -621.0851 YYZZ=           -120.5099
 XXYZ=            -14.4169 YYXZ=             -7.3833 ZZXY=             -5.0357
 N-N= 1.065874189733D+03 E-N=-5.041633430438D+03  KE= 1.224746237749D+03
 Evaluate density.
 Using the total density.
 Monte-Carlo method of calculating molar volume:
 based on  0.001 e/bohr**3 density envelope.
 Number of points per bohr**3 =   20 CutOff= 1.00D-04
 Using the CI density.
 There are       399 points.  Will hold       399 in memory.
 LenV=   536732916 MDV=   536870912.
 Box volume = 7961.562 fraction occupied=0.165
 Integrated density= 1.1040825423059967D+02 error=-3.5917457694003332D+00
 Molar volume = 1316.950 bohr**3/mol (117.523 cm**3/mol)
 Recommended a0 for SCRF calculation =  4.46 angstrom (  8.43 bohr)
 ******************************Gaussian NBO Version 3.1******************************
             N A T U R A L   A T O M I C   O R B I T A L   A N D
          N A T U R A L   B O N D   O R B I T A L   A N A L Y S I S
 ******************************Gaussian NBO Version 3.1******************************
       /RESON  / : Allow strongly delocalized NBO set

 Analyzing the CI density

 Job title: MCJUWZWWFSIMHG-UHFFFAOYSA-N_conf_0                              

 Storage needed:    146304 in NPA ( 536869297 available)


 NATURAL POPULATIONS:  Natural atomic orbital occupancies 
                                                          
   NAO  Atom  No  lang   Type(AO)    Occupancy
 --------------------------------------------
     1    F    1  S      Cor( 1S)     1.99997
     2    F    1  S      Val( 2S)     1.92763
     3    F    1  S      Ryd( 3S)     0.00259
     4    F    1  S      Ryd( 4S)     0.00013
     5    F    1  px     Val( 2p)     1.94347
     6    F    1  px     Ryd( 3p)     0.00017
     7    F    1  py     Val( 2p)     1.90424
     8    F    1  py     Ryd( 3p)     0.00012
     9    F    1  pz     Val( 2p)     1.71180
    10    F    1  pz     Ryd( 3p)     0.00047
    11    F    1  dxy    Ryd( 3d)     0.00043
    12    F    1  dxz    Ryd( 3d)     0.00174
    13    F    1  dyz    Ryd( 3d)     0.00188
    14    F    1  dx2y2  Ryd( 3d)     0.00042
    15    F    1  dz2    Ryd( 3d)     0.00220
 
    16    S    2  S      Cor( 1S)     2.00000
    17    S    2  S      Cor( 2S)     1.99913
    18    S    2  S      Val( 3S)     1.02900
    19    S    2  S      Ryd( 4S)     0.00438
    20    S    2  S      Ryd( 5S)     0.00028
    21    S    2  px     Cor( 2p)     1.99991
    22    S    2  px     Val( 3p)     0.88962
    23    S    2  px     Ryd( 4p)     0.00932
    24    S    2  py     Cor( 2p)     1.99989
    25    S    2  py     Val( 3p)     0.70187
    26    S    2  py     Ryd( 4p)     0.01368
    27    S    2  pz     Cor( 2p)     1.99988
    28    S    2  pz     Val( 3p)     0.76374
    29    S    2  pz     Ryd( 4p)     0.00906
    30    S    2  dxy    Ryd( 3d)     0.03009
    31    S    2  dxz    Ryd( 3d)     0.02314
    32    S    2  dyz    Ryd( 3d)     0.03975
    33    S    2  dx2y2  Ryd( 3d)     0.04221
    34    S    2  dz2    Ryd( 3d)     0.03633
 
    35    C    3  S      Cor( 1S)     1.99877
    36    C    3  S      Val( 2S)     0.93327
    37    C    3  S      Ryd( 3S)     0.00383
    38    C    3  S      Ryd( 4S)     0.00012
    39    C    3  px     Val( 2p)     1.07279
    40    C    3  px     Ryd( 3p)     0.00780
    41    C    3  py     Val( 2p)     0.96171
    42    C    3  py     Ryd( 3p)     0.01334
    43    C    3  pz     Val( 2p)     1.25833
    44    C    3  pz     Ryd( 3p)     0.00623
    45    C    3  dxy    Ryd( 3d)     0.00092
    46    C    3  dxz    Ryd( 3d)     0.00100
    47    C    3  dyz    Ryd( 3d)     0.00143
    48    C    3  dx2y2  Ryd( 3d)     0.00131
    49    C    3  dz2    Ryd( 3d)     0.00057
 
    50    N    4  S      Cor( 1S)     1.99883
    51    N    4  S      Val( 2S)     1.25438
    52    N    4  S      Ryd( 3S)     0.00054
    53    N    4  S      Ryd( 4S)     0.00001
    54    N    4  px     Val( 2p)     1.19712
    55    N    4  px     Ryd( 3p)     0.00400
    56    N    4  py     Val( 2p)     1.16307
    57    N    4  py     Ryd( 3p)     0.00423
    58    N    4  pz     Val( 2p)     1.47961
    59    N    4  pz     Ryd( 3p)     0.00425
    60    N    4  dxy    Ryd( 3d)     0.00039
    61    N    4  dxz    Ryd( 3d)     0.00166
    62    N    4  dyz    Ryd( 3d)     0.00126
    63    N    4  dx2y2  Ryd( 3d)     0.00077
    64    N    4  dz2    Ryd( 3d)     0.00019
 
    65    C    5  S      Cor( 1S)     1.99905
    66    C    5  S      Val( 2S)     0.94246
    67    C    5  S      Ryd( 3S)     0.00160
    68    C    5  S      Ryd( 4S)     0.00010
    69    C    5  px     Val( 2p)     0.90974
    70    C    5  px     Ryd( 3p)     0.00656
    71    C    5  py     Val( 2p)     1.17474
    72    C    5  py     Ryd( 3p)     0.00636
    73    C    5  pz     Val( 2p)     0.90842
    74    C    5  pz     Ryd( 3p)     0.00112
    75    C    5  dxy    Ryd( 3d)     0.00100
    76    C    5  dxz    Ryd( 3d)     0.00234
    77    C    5  dyz    Ryd( 3d)     0.00062
    78    C    5  dx2y2  Ryd( 3d)     0.00119
    79    C    5  dz2    Ryd( 3d)     0.00055
 
    80    C    6  S      Cor( 1S)     1.99884
    81    C    6  S      Val( 2S)     0.90909
    82    C    6  S      Ryd( 3S)     0.00098
    83    C    6  S      Ryd( 4S)     0.00006
    84    C    6  px     Val( 2p)     1.08492
    85    C    6  px     Ryd( 3p)     0.00475
    86    C    6  py     Val( 2p)     1.07173
    87    C    6  py     Ryd( 3p)     0.00448
    88    C    6  pz     Val( 2p)     1.20925
    89    C    6  pz     Ryd( 3p)     0.00372
    90    C    6  dxy    Ryd( 3d)     0.00056
    91    C    6  dxz    Ryd( 3d)     0.00052
    92    C    6  dyz    Ryd( 3d)     0.00056
    93    C    6  dx2y2  Ryd( 3d)     0.00073
    94    C    6  dz2    Ryd( 3d)     0.00053
 
    95    C    7  S      Cor( 1S)     1.99908
    96    C    7  S      Val( 2S)     0.78338
    97    C    7  S      Ryd( 3S)     0.00500
    98    C    7  S      Ryd( 4S)     0.00025
    99    C    7  px     Val( 2p)     0.85649
   100    C    7  px     Ryd( 3p)     0.01229
   101    C    7  py     Val( 2p)     0.57116
   102    C    7  py     Ryd( 3p)     0.01813
   103    C    7  pz     Val( 2p)     0.59636
   104    C    7  pz     Ryd( 3p)     0.01560
   105    C    7  dxy    Ryd( 3d)     0.00311
   106    C    7  dxz    Ryd( 3d)     0.00376
   107    C    7  dyz    Ryd( 3d)     0.00437
   108    C    7  dx2y2  Ryd( 3d)     0.00338
   109    C    7  dz2    Ryd( 3d)     0.00420
 
   110    F    8  S      Cor( 1S)     1.99993
   111    F    8  S      Val( 2S)     1.84019
   112    F    8  S      Ryd( 3S)     0.00082
   113    F    8  S      Ryd( 4S)     0.00003
   114    F    8  px     Val( 2p)     1.90914
   115    F    8  px     Ryd( 3p)     0.00044
   116    F    8  py     Val( 2p)     1.73410
   117    F    8  py     Ryd( 3p)     0.00020
   118    F    8  pz     Val( 2p)     1.87095
   119    F    8  pz     Ryd( 3p)     0.00018
   120    F    8  dxy    Ryd( 3d)     0.00106
   121    F    8  dxz    Ryd( 3d)     0.00057
   122    F    8  dyz    Ryd( 3d)     0.00113
   123    F    8  dx2y2  Ryd( 3d)     0.00122
   124    F    8  dz2    Ryd( 3d)     0.00085
 
   125    F    9  S      Cor( 1S)     1.99993
   126    F    9  S      Val( 2S)     1.84380
   127    F    9  S      Ryd( 3S)     0.00093
   128    F    9  S      Ryd( 4S)     0.00003
   129    F    9  px     Val( 2p)     1.91427
   130    F    9  px     Ryd( 3p)     0.00050
   131    F    9  py     Val( 2p)     1.92623
   132    F    9  py     Ryd( 3p)     0.00016
   133    F    9  pz     Val( 2p)     1.66669
   134    F    9  pz     Ryd( 3p)     0.00019
   135    F    9  dxy    Ryd( 3d)     0.00021
   136    F    9  dxz    Ryd( 3d)     0.00140
   137    F    9  dyz    Ryd( 3d)     0.00137
   138    F    9  dx2y2  Ryd( 3d)     0.00024
   139    F    9  dz2    Ryd( 3d)     0.00160
 
   140    F   10  S      Cor( 1S)     1.99993
   141    F   10  S      Val( 2S)     1.84071
   142    F   10  S      Ryd( 3S)     0.00087
   143    F   10  S      Ryd( 4S)     0.00004
   144    F   10  px     Val( 2p)     1.88489
   145    F   10  px     Ryd( 3p)     0.00042
   146    F   10  py     Val( 2p)     1.74600
   147    F   10  py     Ryd( 3p)     0.00021
   148    F   10  pz     Val( 2p)     1.87569
   149    F   10  pz     Ryd( 3p)     0.00019
   150    F   10  dxy    Ryd( 3d)     0.00106
   151    F   10  dxz    Ryd( 3d)     0.00062
   152    F   10  dyz    Ryd( 3d)     0.00109
   153    F   10  dx2y2  Ryd( 3d)     0.00129
   154    F   10  dz2    Ryd( 3d)     0.00083
 
   155    C   11  S      Cor( 1S)     1.99904
   156    C   11  S      Val( 2S)     0.95406
   157    C   11  S      Ryd( 3S)     0.00067
   158    C   11  S      Ryd( 4S)     0.00004
   159    C   11  px     Val( 2p)     1.09144
   160    C   11  px     Ryd( 3p)     0.00515
   161    C   11  py     Val( 2p)     1.16327
   162    C   11  py     Ryd( 3p)     0.00489
   163    C   11  pz     Val( 2p)     1.00628
   164    C   11  pz     Ryd( 3p)     0.00400
   165    C   11  dxy    Ryd( 3d)     0.00072
   166    C   11  dxz    Ryd( 3d)     0.00069
   167    C   11  dyz    Ryd( 3d)     0.00055
   168    C   11  dx2y2  Ryd( 3d)     0.00051
   169    C   11  dz2    Ryd( 3d)     0.00046
 
   170    C   12  S      Cor( 1S)     1.99896
   171    C   12  S      Val( 2S)     0.97628
   172    C   12  S      Ryd( 3S)     0.00096
   173    C   12  S      Ryd( 4S)     0.00005
   174    C   12  px     Val( 2p)     1.10773
   175    C   12  px     Ryd( 3p)     0.00522
   176    C   12  py     Val( 2p)     1.14417
   177    C   12  py     Ryd( 3p)     0.00555
   178    C   12  pz     Val( 2p)     0.97449
   179    C   12  pz     Ryd( 3p)     0.00117
   180    C   12  dxy    Ryd( 3d)     0.00079
   181    C   12  dxz    Ryd( 3d)     0.00101
   182    C   12  dyz    Ryd( 3d)     0.00066
   183    C   12  dx2y2  Ryd( 3d)     0.00049
   184    C   12  dz2    Ryd( 3d)     0.00048
 
   185    O   13  S      Cor( 1S)     1.99988
   186    O   13  S      Val( 2S)     1.82894
   187    O   13  S      Ryd( 3S)     0.00115
   188    O   13  S      Ryd( 4S)     0.00012
   189    O   13  px     Val( 2p)     1.73744
   190    O   13  px     Ryd( 3p)     0.00076
   191    O   13  py     Val( 2p)     1.53177
   192    O   13  py     Ryd( 3p)     0.00082
   193    O   13  pz     Val( 2p)     1.76670
   194    O   13  pz     Ryd( 3p)     0.00051
   195    O   13  dxy    Ryd( 3d)     0.00589
   196    O   13  dxz    Ryd( 3d)     0.00099
   197    O   13  dyz    Ryd( 3d)     0.00527
   198    O   13  dx2y2  Ryd( 3d)     0.00601
   199    O   13  dz2    Ryd( 3d)     0.00211
 
   200    O   14  S      Cor( 1S)     1.99988
   201    O   14  S      Val( 2S)     1.82811
   202    O   14  S      Ryd( 3S)     0.00134
   203    O   14  S      Ryd( 4S)     0.00002
   204    O   14  px     Val( 2p)     1.75352
   205    O   14  px     Ryd( 3p)     0.00085
   206    O   14  py     Val( 2p)     1.65264
   207    O   14  py     Ryd( 3p)     0.00055
   208    O   14  pz     Val( 2p)     1.61926
   209    O   14  pz     Ryd( 3p)     0.00072
   210    O   14  dxy    Ryd( 3d)     0.00335
   211    O   14  dxz    Ryd( 3d)     0.00384
   212    O   14  dyz    Ryd( 3d)     0.00571
   213    O   14  dx2y2  Ryd( 3d)     0.00331
   214    O   14  dz2    Ryd( 3d)     0.00494
 
   215    H   15  S      Val( 1S)     0.71160
   216    H   15  S      Ryd( 2S)     0.00123
 
   217    H   16  S      Val( 1S)     0.71700
   218    H   16  S      Ryd( 2S)     0.00108
 
   219    H   17  S      Val( 1S)     0.69641
   220    H   17  S      Ryd( 2S)     0.00091

 WARNING:  1 low occupancy (<1.9990e) core orbital  found on  C    3
           1 low occupancy (<1.9990e) core orbital  found on  N    4
           1 low occupancy (<1.9990e) core orbital  found on  C    6
           1 low occupancy (<1.9990e) core orbital  found on  C   12


 Summary of Natural Population Analysis:                  
                                                          
                                       Natural Population 
                Natural  -----------------------------------------------
    Atom  No    Charge         Core      Valence    Rydberg      Total
 -----------------------------------------------------------------------
      F    1   -0.49726      1.99997     7.48714    0.01016     9.49726
      S    2    2.40872      9.99880     3.38423    0.20825    13.59128
      C    3   -0.26142      1.99877     4.22610    0.03655     6.26142
      N    4   -0.11031      1.99883     5.09418    0.01729     7.11031
      C    5    0.04414      1.99905     3.93536    0.02144     5.95586
      C    6   -0.29072      1.99884     4.27499    0.01688     6.29072
      C    7    1.12344      1.99908     2.80740    0.07008     4.87656
      F    8   -0.36083      1.99993     7.35438    0.00652     9.36083
      F    9   -0.35754      1.99993     7.35098    0.00663     9.35754
      F   10   -0.35382      1.99993     7.34730    0.00659     9.35382
      C   11   -0.23179      1.99904     4.21505    0.01770     6.23179
      C   12   -0.21801      1.99896     4.20267    0.01638     6.21801
      O   13   -0.88836      1.99988     6.86485    0.02363     8.88836
      O   14   -0.87803      1.99988     6.85354    0.02461     8.87803
      H   15    0.28718      0.00000     0.71160    0.00123     0.71282
      H   16    0.28192      0.00000     0.71700    0.00108     0.71808
      H   17    0.30268      0.00000     0.69641    0.00091     0.69732
 =======================================================================
   * Total *    0.00000     35.99090    77.52317    0.48594   114.00000

                                 Natural Population      
 --------------------------------------------------------
   Core                      35.99090 ( 99.9747% of  36)
   Valence                   77.52317 ( 99.3887% of  78)
   Natural Minimal Basis    113.51406 ( 99.5737% of 114)
   Natural Rydberg Basis      0.48594 (  0.4263% of 114)
 --------------------------------------------------------

    Atom  No          Natural Electron Configuration
 ----------------------------------------------------------------------------
      F    1      [core]2S( 1.93)2p( 5.56)3d( 0.01)
      S    2      [core]3S( 1.03)3p( 2.36)3d( 0.17)4p( 0.03)
      C    3      [core]2S( 0.93)2p( 3.29)3p( 0.03)3d( 0.01)
      N    4      [core]2S( 1.25)2p( 3.84)3p( 0.01)
      C    5      [core]2S( 0.94)2p( 2.99)3p( 0.01)3d( 0.01)
      C    6      [core]2S( 0.91)2p( 3.37)3p( 0.01)
      C    7      [core]2S( 0.78)2p( 2.02)3p( 0.05)3d( 0.02)
      F    8      [core]2S( 1.84)2p( 5.51)
      F    9      [core]2S( 1.84)2p( 5.51)
      F   10      [core]2S( 1.84)2p( 5.51)
      C   11      [core]2S( 0.95)2p( 3.26)3p( 0.01)
      C   12      [core]2S( 0.98)2p( 3.23)3p( 0.01)
      O   13      [core]2S( 1.83)2p( 5.04)3d( 0.02)
      O   14      [core]2S( 1.83)2p( 5.03)3d( 0.02)
      H   15            1S( 0.71)
      H   16            1S( 0.72)
      H   17            1S( 0.70)


 NBO analysis skipped by request.
 1\1\GINC-DELLA-H12N17\SP\RAPFD TD-FC\6-31G(d)\C6H3F4N1O2S1\SHIVAANI\26
 -Feb-2024\0\\# TD(NStates=10, Root=1) APFD/6-31G* volume pop=NPA densi
 ty=current Geom=AllCheck Guess=Read\\MCJUWZWWFSIMHG-UHFFFAOYSA-N_conf_
 0\\0,1\F,0,3.1043736563,-0.8887888102,1.8563497596\S,0,3.1007928054,-0
 .2327385918,0.3941798252\C,0,1.3228582862,-0.0706344922,0.1881456782\N
 ,0,0.7326295292,0.7932923283,0.9978957573\C,0,-0.5792486924,0.94905010
 74,0.8520157574\C,0,-1.3170835563,0.2505524826,-0.1064391441\C,0,-2.81
 08608986,0.4339648262,-0.1895268741\F,0,-3.1731150734,1.6739654825,0.1
 758779172\F,0,-3.4446888191,-0.4295996768,0.6226483768\F,0,-3.26054689
 12,0.219253032,-1.4374258638\C,0,-0.6689179818,-0.6471111558,-0.947076
 1553\C,0,0.7039830434,-0.8238251665,-0.8015208551\O,0,3.5805037966,-1.
 249122524,-0.5144699448\O,0,3.7214898828,1.0607185835,0.5171544626\H,0
 ,-1.0607098175,1.6616626461,1.5162133329\H,0,-1.2249996823,-1.19243954
 45,-1.7035599921\H,0,1.2735404128,-1.5081995268,-1.4204620381\\Version
 =ES64L-G16RevA.03\State=1-A\HF=-1232.4182454\RMSD=9.635e-09\Dipole=-1.
 0722395,0.0169845,0.0440718\Quadrupole=-10.483082,4.0553915,6.4276904,
 -0.3953545,-0.3031295,3.0399656\PG=C01 [X(C6H3F4N1O2S1)]\\@


 THE RARE EARTHS PERPLEX US IN OUR RESEARCHES,
 BAFFLE US IN OUR SPECULATIONS, AND HAUNT US IN OUR
 VERY DREAMS.  THEY STRETCH LIKE AN UNKNOWN BEFORE US,
 MOCKING, MYSTIFYING, AND MURMURING STRANGE REVELATIONS
 AND POSSIBILITIES.  -- SIR WILLIAM CROOKE, 1832-1919
 Job cpu time:       0 days  0 hours 10 minutes 57.2 seconds.
 Elapsed time:       0 days  0 hours  5 minutes 36.0 seconds.
 File lengths (MBytes):  RWF=    463 Int=      0 D2E=      0 Chk=    268 Scr=      1
 Normal termination of Gaussian 16 at Mon Feb 26 13:02:13 2024.
