 Entering Gaussian System, Link 0=g16
 Input=WNKAAUWKENUQEO-UHFFFAOYSA-N_conf_0.gjf
 Output=WNKAAUWKENUQEO-UHFFFAOYSA-N_conf_0.log
 Initial command:
 /opt/export/g16/l1.exe "/tmp/Gau-2821527.inp" -scrdir="/tmp/"
 Entering Link 1 = /opt/export/g16/l1.exe PID=   2821530.
  
 Copyright (c) 1988,1990,1992,1993,1995,1998,2003,2009,2016,
            Gaussian, Inc.  All Rights Reserved.
  
 This is part of the Gaussian(R) 16 program.  It is based on
 the Gaussian(R) 09 system (copyright 2009, Gaussian, Inc.),
 the Gaussian(R) 03 system (copyright 2003, Gaussian, Inc.),
 the Gaussian(R) 98 system (copyright 1998, Gaussian, Inc.),
 the Gaussian(R) 94 system (copyright 1995, Gaussian, Inc.),
 the Gaussian 92(TM) system (copyright 1992, Gaussian, Inc.),
 the Gaussian 90(TM) system (copyright 1990, Gaussian, Inc.),
 the Gaussian 88(TM) system (copyright 1988, Gaussian, Inc.),
 the Gaussian 86(TM) system (copyright 1986, Carnegie Mellon
 University), and the Gaussian 82(TM) system (copyright 1983,
 Carnegie Mellon University). Gaussian is a federally registered
 trademark of Gaussian, Inc.
  
 This software contains proprietary and confidential information,
 including trade secrets, belonging to Gaussian, Inc.
  
 This software is provided under written license and may be
 used, copied, transmitted, or stored only in accord with that
 written license.
  
 The following legend is applicable only to US Government
 contracts under FAR:
  
                    RESTRICTED RIGHTS LEGEND
  
 Use, reproduction and disclosure by the US Government is
 subject to restrictions as set forth in subparagraphs (a)
 and (c) of the Commercial Computer Software - Restricted
 Rights clause in FAR 52.227-19.
  
 Gaussian, Inc.
 340 Quinnipiac St., Bldg. 40, Wallingford CT 06492
  
  
 ---------------------------------------------------------------
 Warning -- This program may not be used in any manner that
 competes with the business of Gaussian, Inc. or will provide
 assistance to any competitor of Gaussian, Inc.  The licensee
 of this program is prohibited from giving any competitor of
 Gaussian, Inc. access to this program.  By using this program,
 the user acknowledges that Gaussian, Inc. is engaged in the
 business of creating and licensing software in the field of
 computational chemistry and represents and warrants to the
 licensee that it is not a competitor of Gaussian, Inc. and that
 it will not use this program in any manner prohibited above.
 ---------------------------------------------------------------
  

 Cite this work as:
 Gaussian 16, Revision A.03,
 M. J. Frisch, G. W. Trucks, H. B. Schlegel, G. E. Scuseria, 
 M. A. Robb, J. R. Cheeseman, G. Scalmani, V. Barone, 
 G. A. Petersson, H. Nakatsuji, X. Li, M. Caricato, A. V. Marenich, 
 J. Bloino, B. G. Janesko, R. Gomperts, B. Mennucci, H. P. Hratchian, 
 J. V. Ortiz, A. F. Izmaylov, J. L. Sonnenberg, D. Williams-Young, 
 F. Ding, F. Lipparini, F. Egidi, J. Goings, B. Peng, A. Petrone, 
 T. Henderson, D. Ranasinghe, V. G. Zakrzewski, J. Gao, N. Rega, 
 G. Zheng, W. Liang, M. Hada, M. Ehara, K. Toyota, R. Fukuda, 
 J. Hasegawa, M. Ishida, T. Nakajima, Y. Honda, O. Kitao, H. Nakai, 
 T. Vreven, K. Throssell, J. A. Montgomery, Jr., J. E. Peralta, 
 F. Ogliaro, M. J. Bearpark, J. J. Heyd, E. N. Brothers, K. N. Kudin, 
 V. N. Staroverov, T. A. Keith, R. Kobayashi, J. Normand, 
 K. Raghavachari, A. P. Rendell, J. C. Burant, S. S. Iyengar, 
 J. Tomasi, M. Cossi, J. M. Millam, M. Klene, C. Adamo, R. Cammi, 
 J. W. Ochterski, R. L. Martin, K. Morokuma, O. Farkas, 
 J. B. Foresman, and D. J. Fox, Gaussian, Inc., Wallingford CT, 2016.
 
 ******************************************
 Gaussian 16:  ES64L-G16RevA.03 25-Dec-2016
                26-Feb-2024 
 ******************************************
 %nprocshared=2
 Will use up to    2 processors via shared memory.
 %mem=4GB
 %Chk=WNKAAUWKENUQEO-UHFFFAOYSA-N_conf_0_0.chk
 --------------------------------
 # opt=CalcFc APFD/6-31G* scf=xqc
 --------------------------------
 1/10=4,18=20,19=15,26=3,38=1/1,3;
 2/9=110,12=2,17=6,18=5,40=1/2;
 3/5=1,6=6,7=1,11=2,25=1,30=1,71=2,74=-44,140=1/1,2,3;
 4//1;
 5/5=2,8=3,13=1,38=5/2,8;
 8/6=4,10=90,11=11/1;
 11/6=1,8=1,9=11,15=111,16=1/1,2,10;
 10/6=1,13=1/2;
 6/7=2,8=2,9=2,10=2,28=1/1;
 7/10=1,18=20,25=1/1,2,3,16;
 1/10=4,18=20,19=15,26=3/3(2);
 2/9=110/2;
 99//99;
 2/9=110/2;
 3/5=1,6=6,7=1,11=2,25=1,30=1,71=1,74=-44/1,2,3;
 4/5=5,16=3,69=1/1;
 5/5=2,8=3,13=1,38=5/2,8;
 7//1,2,3,16;
 1/18=20,19=15,26=3/3(-5);
 2/9=110/2;
 6/7=2,8=2,9=2,10=2,19=2,28=1/1;
 99/9=1/99;
 ----------------------------------
 WNKAAUWKENUQEO-UHFFFAOYSA-N_conf_0
 ----------------------------------
 Symbolic Z-matrix:
 Charge =  0 Multiplicity = 1
 O                     4.07705  -1.30969  -0.19128 
 S                     3.58985   0.02756  -0.46682 
 C                     1.83358  -0.01755  -0.2808 
 N                     1.13983   0.6057    0.65128 
 C                    -0.20566   0.33008   0.47094 
 C                    -0.50915  -0.50694  -0.60752 
 C                    -1.83006  -0.87373  -0.91341 
 C                    -2.85817  -0.37827  -0.10555 
 C                    -2.58004   0.45587   0.97261 
 C                    -1.26118   0.8154    1.26905 
 S                     0.95293  -0.94954  -1.40548 
 F                     4.16137   0.9537    0.6934 
 O                     3.86411   0.72291  -1.70891 
 H                    -2.05039  -1.52473  -1.7544 
 H                    -3.88923  -0.64975  -0.32447 
 H                    -3.3918    0.83262   1.59106 
 H                    -1.04306   1.46636   2.1103 
 

 GradGradGradGradGradGradGradGradGradGradGradGradGradGradGradGradGradGrad
 Berny optimization.
 Initialization pass.
                           ----------------------------
                           !    Initial Parameters    !
                           ! (Angstroms and Degrees)  !
 --------------------------                            --------------------------
 ! Name  Definition              Value          Derivative Info.                !
 --------------------------------------------------------------------------------
 ! R1    R(1,2)                  1.4497         calculate D2E/DX2 analytically  !
 ! R2    R(2,3)                  1.7667         calculate D2E/DX2 analytically  !
 ! R3    R(2,12)                 1.5907         calculate D2E/DX2 analytically  !
 ! R4    R(2,13)                 1.4497         calculate D2E/DX2 analytically  !
 ! R5    R(3,4)                  1.3185         calculate D2E/DX2 analytically  !
 ! R6    R(3,11)                 1.7056         calculate D2E/DX2 analytically  !
 ! R7    R(4,5)                  1.3852         calculate D2E/DX2 analytically  !
 ! R8    R(5,6)                  1.3985         calculate D2E/DX2 analytically  !
 ! R9    R(5,10)                 1.4095         calculate D2E/DX2 analytically  !
 ! R10   R(6,7)                  1.4046         calculate D2E/DX2 analytically  !
 ! R11   R(6,11)                 1.7235         calculate D2E/DX2 analytically  !
 ! R12   R(7,8)                  1.3982         calculate D2E/DX2 analytically  !
 ! R13   R(7,14)                 1.0861         calculate D2E/DX2 analytically  !
 ! R14   R(8,9)                  1.3913         calculate D2E/DX2 analytically  !
 ! R15   R(8,15)                 1.0884         calculate D2E/DX2 analytically  !
 ! R16   R(9,10)                 1.3988         calculate D2E/DX2 analytically  !
 ! R17   R(9,16)                 1.0878         calculate D2E/DX2 analytically  !
 ! R18   R(10,17)                1.0858         calculate D2E/DX2 analytically  !
 ! A1    A(1,2,3)              106.8898         calculate D2E/DX2 analytically  !
 ! A2    A(1,2,12)             106.1223         calculate D2E/DX2 analytically  !
 ! A3    A(1,2,13)             122.8024         calculate D2E/DX2 analytically  !
 ! A4    A(3,2,12)             107.1712         calculate D2E/DX2 analytically  !
 ! A5    A(3,2,13)             106.8899         calculate D2E/DX2 analytically  !
 ! A6    A(12,2,13)            106.1224         calculate D2E/DX2 analytically  !
 ! A7    A(2,3,4)              125.8328         calculate D2E/DX2 analytically  !
 ! A8    A(2,3,11)             117.2461         calculate D2E/DX2 analytically  !
 ! A9    A(4,3,11)             116.9211         calculate D2E/DX2 analytically  !
 ! A10   A(3,4,5)              108.9641         calculate D2E/DX2 analytically  !
 ! A11   A(4,5,6)              115.4856         calculate D2E/DX2 analytically  !
 ! A12   A(4,5,10)             125.8141         calculate D2E/DX2 analytically  !
 ! A13   A(6,5,10)             118.7003         calculate D2E/DX2 analytically  !
 ! A14   A(5,6,7)              121.8921         calculate D2E/DX2 analytically  !
 ! A15   A(5,6,11)             109.0652         calculate D2E/DX2 analytically  !
 ! A16   A(7,6,11)             129.0427         calculate D2E/DX2 analytically  !
 ! A17   A(6,7,8)              118.2367         calculate D2E/DX2 analytically  !
 ! A18   A(6,7,14)             121.0592         calculate D2E/DX2 analytically  !
 ! A19   A(8,7,14)             120.7041         calculate D2E/DX2 analytically  !
 ! A20   A(7,8,9)              120.877          calculate D2E/DX2 analytically  !
 ! A21   A(7,8,15)             119.4678         calculate D2E/DX2 analytically  !
 ! A22   A(9,8,15)             119.6552         calculate D2E/DX2 analytically  !
 ! A23   A(8,9,10)             120.4535         calculate D2E/DX2 analytically  !
 ! A24   A(8,9,16)             119.9366         calculate D2E/DX2 analytically  !
 ! A25   A(10,9,16)            119.6098         calculate D2E/DX2 analytically  !
 ! A26   A(5,10,9)             119.8404         calculate D2E/DX2 analytically  !
 ! A27   A(5,10,17)            119.6494         calculate D2E/DX2 analytically  !
 ! A28   A(9,10,17)            120.5102         calculate D2E/DX2 analytically  !
 ! A29   A(3,11,6)              89.564          calculate D2E/DX2 analytically  !
 ! D1    D(1,2,3,4)            113.4258         calculate D2E/DX2 analytically  !
 ! D2    D(1,2,3,11)           -66.5739         calculate D2E/DX2 analytically  !
 ! D3    D(12,2,3,4)            -0.0004         calculate D2E/DX2 analytically  !
 ! D4    D(12,2,3,11)         -180.0            calculate D2E/DX2 analytically  !
 ! D5    D(13,2,3,4)          -113.4268         calculate D2E/DX2 analytically  !
 ! D6    D(13,2,3,11)           66.5736         calculate D2E/DX2 analytically  !
 ! D7    D(2,3,4,5)           -179.9993         calculate D2E/DX2 analytically  !
 ! D8    D(11,3,4,5)             0.0003         calculate D2E/DX2 analytically  !
 ! D9    D(2,3,11,6)           179.9993         calculate D2E/DX2 analytically  !
 ! D10   D(4,3,11,6)            -0.0004         calculate D2E/DX2 analytically  !
 ! D11   D(3,4,5,6)              0.0            calculate D2E/DX2 analytically  !
 ! D12   D(3,4,5,10)           180.0            calculate D2E/DX2 analytically  !
 ! D13   D(4,5,6,7)            179.9998         calculate D2E/DX2 analytically  !
 ! D14   D(4,5,6,11)            -0.0003         calculate D2E/DX2 analytically  !
 ! D15   D(10,5,6,7)            -0.0001         calculate D2E/DX2 analytically  !
 ! D16   D(10,5,6,11)          179.9997         calculate D2E/DX2 analytically  !
 ! D17   D(4,5,10,9)          -180.0            calculate D2E/DX2 analytically  !
 ! D18   D(4,5,10,17)            0.0004         calculate D2E/DX2 analytically  !
 ! D19   D(6,5,10,9)             0.0            calculate D2E/DX2 analytically  !
 ! D20   D(6,5,10,17)         -179.9996         calculate D2E/DX2 analytically  !
 ! D21   D(5,6,7,8)              0.0            calculate D2E/DX2 analytically  !
 ! D22   D(5,6,7,14)           179.9996         calculate D2E/DX2 analytically  !
 ! D23   D(11,6,7,8)          -179.9999         calculate D2E/DX2 analytically  !
 ! D24   D(11,6,7,14)           -0.0002         calculate D2E/DX2 analytically  !
 ! D25   D(5,6,11,3)             0.0004         calculate D2E/DX2 analytically  !
 ! D26   D(7,6,11,3)          -179.9998         calculate D2E/DX2 analytically  !
 ! D27   D(6,7,8,9)              0.0004         calculate D2E/DX2 analytically  !
 ! D28   D(6,7,8,15)           179.9996         calculate D2E/DX2 analytically  !
 ! D29   D(14,7,8,9)          -179.9993         calculate D2E/DX2 analytically  !
 ! D30   D(14,7,8,15)           -0.0001         calculate D2E/DX2 analytically  !
 ! D31   D(7,8,9,10)            -0.0005         calculate D2E/DX2 analytically  !
 ! D32   D(7,8,9,16)           179.9985         calculate D2E/DX2 analytically  !
 ! D33   D(15,8,9,10)         -179.9997         calculate D2E/DX2 analytically  !
 ! D34   D(15,8,9,16)           -0.0007         calculate D2E/DX2 analytically  !
 ! D35   D(8,9,10,5)             0.0003         calculate D2E/DX2 analytically  !
 ! D36   D(8,9,10,17)          180.0            calculate D2E/DX2 analytically  !
 ! D37   D(16,9,10,5)         -179.9987         calculate D2E/DX2 analytically  !
 ! D38   D(16,9,10,17)           0.001          calculate D2E/DX2 analytically  !
 --------------------------------------------------------------------------------
 Trust Radius=3.00D-01 FncErr=1.00D-07 GrdErr=1.00D-06 EigMax=2.50D+02 EigMin=1.00D-04
 Number of steps in this run=     95 maximum allowed number of steps=    102.
 GradGradGradGradGradGradGradGradGradGradGradGradGradGradGradGradGradGrad

                          Input orientation:                          
 ---------------------------------------------------------------------
 Center     Atomic      Atomic             Coordinates (Angstroms)
 Number     Number       Type             X           Y           Z
 ---------------------------------------------------------------------
      1          8           0        4.077048   -1.309694   -0.191276
      2         16           0        3.589855    0.027559   -0.466816
      3          6           0        1.833583   -0.017545   -0.280803
      4          7           0        1.139833    0.605703    0.651282
      5          6           0       -0.205656    0.330078    0.470936
      6          6           0       -0.509154   -0.506938   -0.607516
      7          6           0       -1.830062   -0.873728   -0.913406
      8          6           0       -2.858165   -0.378273   -0.105552
      9          6           0       -2.580036    0.455875    0.972606
     10          6           0       -1.261177    0.815395    1.269052
     11         16           0        0.952930   -0.949538   -1.405484
     12          9           0        4.161367    0.953699    0.693402
     13          8           0        3.864113    0.722907   -1.708909
     14          1           0       -2.050387   -1.524731   -1.754405
     15          1           0       -3.889229   -0.649748   -0.324469
     16          1           0       -3.391804    0.832617    1.591065
     17          1           0       -1.043058    1.466363    2.110295
 ---------------------------------------------------------------------
                    Distance matrix (angstroms):
                    1          2          3          4          5
     1  O    0.000000
     2  S    1.449664   0.000000
     3  C    2.590521   1.766671   0.000000
     4  N    3.606367   2.754452   1.318526   0.000000
     5  C    4.633457   3.921326   2.201010   1.385220   0.000000
     6  C    4.674497   4.136104   2.415505   2.354083   1.398487
     7  C    5.967033   5.512463   3.815170   3.668411   2.450356
     8  C    6.998005   6.470871   4.708857   4.186287   2.805336
     9  C    6.984885   6.350035   4.612504   3.736726   2.430058
    10  C    5.928340   5.212144   3.559970   2.488064   1.409486
    11  S    3.371072   2.964656   1.705598   2.585343   2.549645
    12  F    2.431607   1.590744   2.703880   3.041799   4.416931
    13  O    2.545588   1.449663   2.590523   3.606375   4.633471
    14  H    6.327327   5.989976   4.419087   4.528088   3.434456
    15  H    7.994676   7.511039   5.757791   5.274439   3.893769
    16  H    7.971824   7.323015   5.615276   4.633617   3.414495
    17  H    6.262524   5.493227   4.024226   2.763054   2.163305
                    6          7          8          9         10
     6  C    0.000000
     7  C    1.404599   0.000000
     8  C    2.405488   1.398249   0.000000
     9  C    2.777111   2.426386   1.391253   0.000000
    10  C    2.415702   2.817781   2.421725   1.398758   0.000000
    11  S    1.723467   2.827177   4.067016   4.484680   3.894921
    12  F    5.063558   6.466725   7.189319   6.765523   5.454767
    13  O    4.674511   5.967050   6.998026   6.984904   5.928356
    14  H    2.174087   1.086106   2.164621   3.411732   3.903887
    15  H    3.394910   2.153412   1.088446   2.149137   3.404792
    16  H    3.864949   3.409256   2.151635   1.087838   2.154891
    17  H    3.400804   3.903610   3.406946   2.162805   1.085829
                   11         12         13         14         15
    11  S    0.000000
    12  F    4.280385   0.000000
    13  O    3.371071   2.431609   0.000000
    14  H    3.077744   7.121815   6.327341   0.000000
    15  H    4.970410   8.271590   7.994696   2.488303   0.000000
    16  H    5.570646   7.607289   7.971837   4.306815   2.472672
    17  H    4.709698   5.418159   6.262537   4.989716   4.301941
                   16         17
    16  H    0.000000
    17  H    2.487537   0.000000
 Stoichiometry    C7H4FNO2S2
 Framework group  C1[X(C7H4FNO2S2)]
 Deg. of freedom    45
 Full point group                 C1      NOp   1
 Largest Abelian subgroup         C1      NOp   1
 Largest concise Abelian subgroup C1      NOp   1
                         Standard orientation:                         
 ---------------------------------------------------------------------
 Center     Atomic      Atomic             Coordinates (Angstroms)
 Number     Number       Type             X           Y           Z
 ---------------------------------------------------------------------
      1          8           0        2.867669   -0.501886    1.272803
      2         16           0        2.447740    0.050530    0.000003
      3          6           0        0.681073    0.054484   -0.000009
      4          7           0       -0.088427    1.125176   -0.000010
      5          6           0       -1.414939    0.726181   -0.000005
      6          6           0       -1.627565   -0.656048   -0.000000
      7          6           0       -2.919093   -1.208184    0.000009
      8          6           0       -4.011604   -0.335534    0.000014
      9          6           0       -3.824250    1.043046    0.000002
     10          6           0       -2.533977    1.583155   -0.000004
     11         16           0       -0.103163   -1.460125   -0.000010
     12          9           0        2.920773    1.569315    0.000002
     13          8           0        2.867689   -0.501897   -1.272785
     14          1           0       -3.068600   -2.283951    0.000007
     15          1           0       -5.021392   -0.741791    0.000013
     16          1           0       -4.685253    1.707927   -0.000019
     17          1           0       -2.386688    2.658948   -0.000014
 ---------------------------------------------------------------------
 Rotational constants (GHZ):           1.7922198           0.3772518           0.3329307
 Standard basis: 6-31G(d) (6D, 7F)
 There are   211 symmetry adapted cartesian basis functions of A   symmetry.
 There are   211 symmetry adapted basis functions of A   symmetry.
   211 basis functions,   428 primitive gaussians,   211 cartesian basis functions
    55 alpha electrons       55 beta electrons
       nuclear repulsion energy      1012.7762446120 Hartrees.
 NAtoms=   17 NActive=   17 NUniq=   17 SFac= 1.00D+00 NAtFMM=   60 NAOKFM=F Big=F
 Integral buffers will be    131072 words long.
 Raffenetti 2 integral format.
 Two-electron integral symmetry is turned on.
 R6APFD:  NTU= -4 IXU= 1 FactS= 1.050
 Nuclear repulsion after empirical dispersion term =     1012.7613367208 Hartrees.
 One-electron integrals computed using PRISM.
 NBasis=   211 RedAO= T EigKep=  4.59D-04  NBF=   211
 NBsUse=   211 1.00D-06 EigRej= -1.00D+00 NBFU=   211
 ExpMin= 1.17D-01 ExpMax= 2.19D+04 ExpMxC= 3.30D+03 IAcc=3 IRadAn=         5 AccDes= 0.00D+00
 Harris functional with IExCor= 3731 and IRadAn=       5 diagonalized for initial guess.
 HarFok:  IExCor= 3731 AccDes= 0.00D+00 IRadAn=         5 IDoV= 1 UseB2=F ITyADJ=14
 ICtDFT=  3500011 ScaDFX=  1.000000  1.000000  1.000000  1.000000
 FoFCou: FMM=F IPFlag=           0 FMFlag=      100000 FMFlg1=           0
         NFxFlg=           0 DoJE=T BraDBF=F KetDBF=T FulRan=T
         wScrn=  0.000000 ICntrl=       500 IOpCl=  0 I1Cent=   200000004 NGrid=           0
         NMat0=    1 NMatS0=      1 NMatT0=    0 NMatD0=    1 NMtDS0=    0 NMtDT0=    0
 Petite list used in FoFCou.
 Keep R1 ints in memory in canonical form, NReq=254895406.
 Requested convergence on RMS density matrix=1.00D-08 within  32 cycles.
 Requested convergence on MAX density matrix=1.00D-06.
 Requested convergence on             energy=1.00D-06.
 No special actions if energy rises.
 Integral accuracy reduced to 1.0D-05 until final iterations.
 Failed to achieve initial convergence to 1.0D-08 in 10 cycles.
 Switch to full accuracy anyway.
 SCF Done:  E(RAPFD) =  -1369.84141156     A.U. after   17 cycles
            NFock= 17  Conv=0.72D-08     -V/T= 2.0054
 QCSCF skips out because SCF is already converged.
 DoSCS=F DFT=T ScalE2(SS,OS)=  1.000000  1.000000
 Range of M.O.s used for correlation:     1   211
 NBasis=   211 NAE=    55 NBE=    55 NFC=     0 NFV=     0
 NROrb=    211 NOA=    55 NOB=    55 NVA=   156 NVB=   156

 **** Warning!!: The largest alpha MO coefficient is  0.10054113D+02

 R6APFD:  NTU= -4 IXU= 1 FactS= 1.050
 Symmetrizing basis deriv contribution to polar:
 IMax=3 JMax=2 DiffMx= 0.00D+00
 G2DrvN: will do    18 centers at a time, making    1 passes.
 Calling FoFCou, ICntrl=  3107 FMM=F I1Cent=   0 AccDes= 0.00D+00.
 End of G2Drv F.D. properties file   721 does not exist.
 End of G2Drv F.D. properties file   722 does not exist.
 End of G2Drv F.D. properties file   788 does not exist.
          IDoAtm=11111111111111111
          Differentiating once with respect to nuclear coordinates.
 Keep R1 ints in memory in canonical form, NReq=254902609.
          There are    54 degrees of freedom in the 1st order CPHF.  IDoFFX=6 NUNeed=     0.
     48 vectors produced by pass  0 Test12= 1.59D-14 1.85D-09 XBig12= 1.88D-01 1.83D-01.
 AX will form    48 AO Fock derivatives at one time.
     48 vectors produced by pass  1 Test12= 1.59D-14 1.85D-09 XBig12= 3.23D-02 4.60D-02.
     48 vectors produced by pass  2 Test12= 1.59D-14 1.85D-09 XBig12= 6.78D-04 4.43D-03.
     48 vectors produced by pass  3 Test12= 1.59D-14 1.85D-09 XBig12= 7.33D-06 5.87D-04.
     48 vectors produced by pass  4 Test12= 1.59D-14 1.85D-09 XBig12= 4.75D-08 2.55D-05.
     48 vectors produced by pass  5 Test12= 1.59D-14 1.85D-09 XBig12= 1.03D-10 1.60D-06.
     26 vectors produced by pass  6 Test12= 1.59D-14 1.85D-09 XBig12= 1.53D-13 6.04D-08.
      1 vectors produced by pass  7 Test12= 1.59D-14 1.85D-09 XBig12= 1.63D-16 2.07D-09.
 InvSVY:  IOpt=1 It=  1 EMax= 6.11D-16
 Solved reduced A of dimension   315 with    54 vectors.
 End of Minotr F.D. properties file   721 does not exist.
 End of Minotr F.D. properties file   722 does not exist.
 End of Minotr F.D. properties file   788 does not exist.

 **********************************************************************

            Population analysis using the SCF density.

 **********************************************************************

 Orbital symmetries:
       Occupied  (A) (A) (A) (A) (A) (A) (A) (A) (A) (A) (A) (A)
                 (A) (A) (A) (A) (A) (A) (A) (A) (A) (A) (A) (A)
                 (A) (A) (A) (A) (A) (A) (A) (A) (A) (A) (A) (A)
                 (A) (A) (A) (A) (A) (A) (A) (A) (A) (A) (A) (A)
                 (A) (A) (A) (A) (A) (A) (A)
       Virtual   (A) (A) (A) (A) (A) (A) (A) (A) (A) (A) (A) (A)
                 (A) (A) (A) (A) (A) (A) (A) (A) (A) (A) (A) (A)
                 (A) (A) (A) (A) (A) (A) (A) (A) (A) (A) (A) (A)
                 (A) (A) (A) (A) (A) (A) (A) (A) (A) (A) (A) (A)
                 (A) (A) (A) (A) (A) (A) (A) (A) (A) (A) (A) (A)
                 (A) (A) (A) (A) (A) (A) (A) (A) (A) (A) (A) (A)
                 (A) (A) (A) (A) (A) (A) (A) (A) (A) (A) (A) (A)
                 (A) (A) (A) (A) (A) (A) (A) (A) (A) (A) (A) (A)
                 (A) (A) (A) (A) (A) (A) (A) (A) (A) (A) (A) (A)
                 (A) (A) (A) (A) (A) (A) (A) (A) (A) (A) (A) (A)
                 (A) (A) (A) (A) (A) (A) (A) (A) (A) (A) (A) (A)
                 (A) (A) (A) (A) (A) (A) (A) (A) (A) (A) (A) (A)
                 (A) (A) (A) (A) (A) (A) (A) (A) (A) (A) (A) (A)
 The electronic state is 1-A.
 Alpha  occ. eigenvalues --  -89.25631 -89.03805 -24.81007 -19.22758 -19.22757
 Alpha  occ. eigenvalues --  -14.41958 -10.33923 -10.28502 -10.28143 -10.25664
 Alpha  occ. eigenvalues --  -10.24895 -10.24879 -10.24502  -8.23402  -8.05521
 Alpha  occ. eigenvalues --   -6.18360  -6.17952  -6.17950  -6.00219  -5.99820
 Alpha  occ. eigenvalues --   -5.99429  -1.30067  -1.14854  -1.06515  -1.02700
 Alpha  occ. eigenvalues --   -0.89913  -0.86216  -0.80898  -0.78097  -0.73791
 Alpha  occ. eigenvalues --   -0.66106  -0.64405  -0.63417  -0.57620  -0.54988
 Alpha  occ. eigenvalues --   -0.52992  -0.52978  -0.52630  -0.49135  -0.47697
 Alpha  occ. eigenvalues --   -0.47287  -0.46064  -0.46059  -0.43763  -0.40775
 Alpha  occ. eigenvalues --   -0.39886  -0.39377  -0.38006  -0.36824  -0.35940
 Alpha  occ. eigenvalues --   -0.34575  -0.34148  -0.32331  -0.28225  -0.26761
 Alpha virt. eigenvalues --   -0.07988  -0.03152  -0.02384  -0.00771   0.00136
 Alpha virt. eigenvalues --    0.05669   0.07474   0.09907   0.12142   0.13434
 Alpha virt. eigenvalues --    0.13640   0.15476   0.16411   0.17317   0.19419
 Alpha virt. eigenvalues --    0.21562   0.23909   0.26756   0.28986   0.29521
 Alpha virt. eigenvalues --    0.31908   0.33311   0.34964   0.36173   0.38367
 Alpha virt. eigenvalues --    0.38931   0.41381   0.42273   0.49883   0.51082
 Alpha virt. eigenvalues --    0.51332   0.52717   0.54384   0.55221   0.56656
 Alpha virt. eigenvalues --    0.58048   0.59087   0.59260   0.59640   0.61535
 Alpha virt. eigenvalues --    0.62796   0.63668   0.66210   0.68036   0.72313
 Alpha virt. eigenvalues --    0.73316   0.75312   0.77545   0.78607   0.79092
 Alpha virt. eigenvalues --    0.79730   0.82224   0.83584   0.84131   0.85576
 Alpha virt. eigenvalues --    0.86596   0.87073   0.89308   0.89622   0.90194
 Alpha virt. eigenvalues --    0.93128   0.94232   0.98925   0.99056   0.99991
 Alpha virt. eigenvalues --    1.01012   1.01812   1.03244   1.04095   1.05358
 Alpha virt. eigenvalues --    1.09589   1.10769   1.14821   1.14914   1.15852
 Alpha virt. eigenvalues --    1.21459   1.22361   1.25004   1.27960   1.29588
 Alpha virt. eigenvalues --    1.30951   1.34958   1.38039   1.39417   1.41050
 Alpha virt. eigenvalues --    1.42267   1.44055   1.45767   1.46814   1.50859
 Alpha virt. eigenvalues --    1.51600   1.54344   1.59410   1.70163   1.70556
 Alpha virt. eigenvalues --    1.75296   1.76883   1.77316   1.77775   1.79431
 Alpha virt. eigenvalues --    1.80207   1.80985   1.81202   1.83499   1.83612
 Alpha virt. eigenvalues --    1.86402   1.86535   1.91384   1.93117   1.94752
 Alpha virt. eigenvalues --    1.96430   2.03143   2.03831   2.06385   2.09753
 Alpha virt. eigenvalues --    2.10309   2.10877   2.16252   2.17416   2.19688
 Alpha virt. eigenvalues --    2.21120   2.22013   2.24249   2.26457   2.29111
 Alpha virt. eigenvalues --    2.38710   2.39800   2.46127   2.47003   2.56845
 Alpha virt. eigenvalues --    2.61412   2.62480   2.63442   2.63939   2.71741
 Alpha virt. eigenvalues --    2.72532   2.78363   2.79827   2.81909   2.85834
 Alpha virt. eigenvalues --    2.95234   3.12774   3.37050   3.76140   3.81226
 Alpha virt. eigenvalues --    3.91106   3.96466   4.07065   4.08038   4.11201
 Alpha virt. eigenvalues --    4.17296   4.25338   4.35875   4.36855   4.52989
 Alpha virt. eigenvalues --    4.68904
          Condensed to atoms (all electrons):
               1          2          3          4          5          6
     1  O    8.152356   0.443972  -0.056859   0.000022  -0.000149  -0.000012
     2  S    0.443972  13.445709   0.190569  -0.008231  -0.000127   0.000724
     3  C   -0.056859   0.190569   5.643246   0.357267  -0.069980  -0.043759
     4  N    0.000022  -0.008231   0.357267   6.913984   0.371380  -0.085485
     5  C   -0.000149  -0.000127  -0.069980   0.371380   4.607827   0.460023
     6  C   -0.000012   0.000724  -0.043759  -0.085485   0.460023   5.279795
     7  C   -0.000000  -0.000034   0.003786   0.008901   0.001379   0.457836
     8  C   -0.000000   0.000001  -0.000088  -0.000193  -0.033925  -0.034570
     9  C   -0.000000   0.000003  -0.000154   0.004302  -0.015944  -0.037599
    10  C    0.000001  -0.000245   0.008601  -0.061075   0.516901  -0.078861
    11  S    0.004090  -0.019956   0.252509  -0.069543  -0.080473   0.298380
    12  F   -0.034580   0.226078  -0.033175   0.002357   0.000179  -0.000004
    13  O   -0.039369   0.443971  -0.056859   0.000023  -0.000149  -0.000012
    14  H   -0.000000   0.000002  -0.000021  -0.000102   0.002282  -0.038864
    15  H    0.000000  -0.000000  -0.000000   0.000002   0.000633   0.004292
    16  H    0.000000  -0.000000   0.000004  -0.000071   0.002897   0.000528
    17  H   -0.000000   0.000011  -0.000161  -0.002155  -0.032054   0.006963
               7          8          9         10         11         12
     1  O   -0.000000  -0.000000  -0.000000   0.000001   0.004090  -0.034580
     2  S   -0.000034   0.000001   0.000003  -0.000245  -0.019956   0.226078
     3  C    0.003786  -0.000088  -0.000154   0.008601   0.252509  -0.033175
     4  N    0.008901  -0.000193   0.004302  -0.061075  -0.069543   0.002357
     5  C    0.001379  -0.033925  -0.015944   0.516901  -0.080473   0.000179
     6  C    0.457836  -0.034570  -0.037599  -0.078861   0.298380  -0.000004
     7  C    4.968172   0.550179  -0.034178  -0.040797  -0.053340   0.000000
     8  C    0.550179   4.868095   0.531925  -0.038772   0.003107  -0.000000
     9  C   -0.034178   0.531925   4.897903   0.538938   0.000345  -0.000000
    10  C   -0.040797  -0.038772   0.538938   4.981802   0.007599  -0.000001
    11  S   -0.053340   0.003107   0.000345   0.007599  15.264909   0.000460
    12  F    0.000000  -0.000000  -0.000000  -0.000001   0.000460   9.137352
    13  O   -0.000000  -0.000000  -0.000000   0.000001   0.004090  -0.034580
    14  H    0.368756  -0.031849   0.003680   0.000530  -0.002010  -0.000000
    15  H   -0.037991   0.369109  -0.036998   0.003895  -0.000123   0.000000
    16  H    0.004280  -0.037739   0.368643  -0.034177   0.000021   0.000000
    17  H    0.000064   0.004151  -0.040382   0.357551  -0.000193   0.000000
              13         14         15         16         17
     1  O   -0.039369  -0.000000   0.000000   0.000000  -0.000000
     2  S    0.443971   0.000002  -0.000000  -0.000000   0.000011
     3  C   -0.056859  -0.000021  -0.000000   0.000004  -0.000161
     4  N    0.000023  -0.000102   0.000002  -0.000071  -0.002155
     5  C   -0.000149   0.002282   0.000633   0.002897  -0.032054
     6  C   -0.000012  -0.038864   0.004292   0.000528   0.006963
     7  C   -0.000000   0.368756  -0.037991   0.004280   0.000064
     8  C   -0.000000  -0.031849   0.369109  -0.037739   0.004151
     9  C   -0.000000   0.003680  -0.036998   0.368643  -0.040382
    10  C    0.000001   0.000530   0.003895  -0.034177   0.357551
    11  S    0.004090  -0.002010  -0.000123   0.000021  -0.000193
    12  F   -0.034580  -0.000000   0.000000   0.000000   0.000000
    13  O    8.152355  -0.000000   0.000000   0.000000  -0.000000
    14  H   -0.000000   0.506517  -0.004151  -0.000145   0.000013
    15  H    0.000000  -0.004151   0.518145  -0.004258  -0.000135
    16  H    0.000000  -0.000145  -0.004258   0.516324  -0.004454
    17  H   -0.000000   0.000013  -0.000135  -0.004454   0.511315
 Mulliken charges:
               1
     1  O   -0.469472
     2  S    1.277553
     3  C   -0.194927
     4  N   -0.431383
     5  C    0.269299
     6  C   -0.189375
     7  C   -0.197013
     8  C   -0.149430
     9  C   -0.180485
    10  C   -0.161888
    11  S    0.390128
    12  F   -0.264088
    13  O   -0.469472
    14  H    0.195361
    15  H    0.187578
    16  H    0.188148
    17  H    0.199467
 Sum of Mulliken charges =  -0.00000
 Mulliken charges with hydrogens summed into heavy atoms:
               1
     1  O   -0.469472
     2  S    1.277553
     3  C   -0.194927
     4  N   -0.431383
     5  C    0.269299
     6  C   -0.189375
     7  C   -0.001653
     8  C    0.038149
     9  C    0.007663
    10  C    0.037579
    11  S    0.390128
    12  F   -0.264088
    13  O   -0.469472
 APT charges:
               1
     1  O   -0.063048
     2  S    0.236995
     3  C   -0.176407
     4  N   -0.414355
     5  C   -0.371387
     6  C   -0.419883
     7  C   -0.596786
     8  C   -0.496360
     9  C   -0.422856
    10  C   -0.567387
    11  S    0.223951
    12  F    0.023402
    13  O   -0.063039
    14  H    0.639523
    15  H    0.962133
    16  H    0.936719
    17  H    0.568786
 Sum of APT charges =  -0.00000
 APT charges with hydrogens summed into heavy atoms:
               1
     1  O   -0.063048
     2  S    0.236995
     3  C   -0.176407
     4  N   -0.414355
     5  C   -0.371387
     6  C   -0.419883
     7  C    0.042737
     8  C    0.465773
     9  C    0.513862
    10  C    0.001399
    11  S    0.223951
    12  F    0.023402
    13  O   -0.063039
 Electronic spatial extent (au):  <R**2>=           3113.2336
 Charge=             -0.0000 electrons
 Dipole moment (field-independent basis, Debye):
    X=             -5.7035    Y=             -0.3274    Z=             -0.0000  Tot=              5.7129
 Quadrupole moment (field-independent basis, Debye-Ang):
   XX=            -80.4022   YY=            -81.0080   ZZ=            -92.0820
   XY=              2.4857   XZ=              0.0000   YZ=             -0.0000
 Traceless Quadrupole moment (field-independent basis, Debye-Ang):
   XX=              4.0952   YY=              3.4894   ZZ=             -7.5846
   XY=              2.4857   XZ=              0.0000   YZ=             -0.0000
 Octapole moment (field-independent basis, Debye-Ang**2):
  XXX=            -44.4163  YYY=              3.9238  ZZZ=             -0.0001  XYY=             -4.4286
  XXY=             13.6671  XXZ=             -0.0003  XZZ=             13.2050  YZZ=              5.2872
  YYZ=             -0.0001  XYZ=              0.0002
 Hexadecapole moment (field-independent basis, Debye-Ang**3):
 XXXX=          -2843.2348 YYYY=           -580.1961 ZZZZ=           -198.7329 XXXY=             46.1778
 XXXZ=              0.0019 YYYX=             17.8274 YYYZ=             -0.0002 ZZZX=              0.0000
 ZZZY=              0.0001 XXYY=           -564.8838 XXZZ=           -619.1896 YYZZ=           -141.9906
 XXYZ=             -0.0011 YYXZ=              0.0005 ZZXY=             18.3859
 N-N= 1.012761336721D+03 E-N=-5.257279447742D+03  KE= 1.362441719677D+03
  Exact polarizability:   0.000   0.000   0.000   0.000   0.000   0.000
 Approx polarizability: 263.861 -14.969 219.551  -0.001  -0.000 100.331
 R6APFD:  NTU= -4 IXU= 1 FactS= 1.050
 Calling FoFJK, ICntrl=    100147 FMM=F ISym2X=0 I1Cent= 0 IOpClX= 0 NMat=1 NMatS=1 NMatT=0.
 ***** Axes restored to original set *****
 -------------------------------------------------------------------
 Center     Atomic                   Forces (Hartrees/Bohr)
 Number     Number              X              Y              Z
 -------------------------------------------------------------------
      1        8          -0.001504521    0.008621703   -0.002010620
      2       16           0.019360695   -0.009821361   -0.015868219
      3        6          -0.022729775    0.028056400    0.040765687
      4        7           0.013480770   -0.010197646   -0.015548806
      5        6           0.000735842    0.008809504    0.011696187
      6        6          -0.011387609   -0.005758537   -0.006114863
      7        6          -0.002804128    0.002329830    0.003513964
      8        6           0.005103146   -0.009430997   -0.013348959
      9        6           0.016060151    0.008617048    0.009286142
     10        6          -0.005576950    0.000077678    0.000886068
     11       16          -0.002043261   -0.017107655   -0.022625607
     12        9          -0.013164705    0.000628165    0.002687959
     13        8          -0.000130962   -0.004486637    0.007776305
     14        1           0.000284516    0.000098197    0.000092058
     15        1           0.001497215   -0.000350056   -0.000678561
     16        1           0.001295580   -0.000069210   -0.000272853
     17        1           0.001523996   -0.000016426   -0.000235881
 -------------------------------------------------------------------
 Cartesian Forces:  Max     0.040765687 RMS     0.011340150
 FormGI is forming the generalized inverse of G from B-inverse, IUseBI=4.

 GradGradGradGradGradGradGradGradGradGradGradGradGradGradGradGradGradGrad
 Berny optimization.
 Internal  Forces:  Max     0.033603023 RMS     0.007130967
 Search for a local minimum.
 Step number   1 out of a maximum of   95
 All quantities printed in internal units (Hartrees-Bohrs-Radians)
 Mixed Optimization -- RFO/linear search
 Second derivative matrix not updated -- analytic derivatives used.
 ITU=  0
     Eigenvalues ---   -0.00276   0.01465   0.01618   0.01733   0.01876
     Eigenvalues ---    0.01937   0.02275   0.02521   0.02758   0.02801
     Eigenvalues ---    0.03071   0.03971   0.11039   0.11359   0.11811
     Eigenvalues ---    0.12408   0.12442   0.14547   0.15705   0.16429
     Eigenvalues ---    0.17900   0.18824   0.19132   0.19137   0.19381
     Eigenvalues ---    0.21436   0.22944   0.25582   0.27708   0.31268
     Eigenvalues ---    0.31814   0.36164   0.36348   0.36763   0.36986
     Eigenvalues ---    0.37986   0.40014   0.40615   0.43223   0.46403
     Eigenvalues ---    0.46782   0.49840   0.51492   0.66993   0.67311
 RFO step:  Lambda=-1.56207477D-02 EMin=-2.76441921D-03
 Linear search not attempted -- first point.
 Iteration  1 RMS(Cart)=  0.12706077 RMS(Int)=  0.03311166
 Iteration  2 RMS(Cart)=  0.05473479 RMS(Int)=  0.00243481
 Iteration  3 RMS(Cart)=  0.00259410 RMS(Int)=  0.00056204
 Iteration  4 RMS(Cart)=  0.00000522 RMS(Int)=  0.00056203
 Iteration  5 RMS(Cart)=  0.00000000 RMS(Int)=  0.00056203
 Variable       Old X    -DE/DX   Delta X   Delta X   Delta X     New X
                                 (Linear)    (Quad)   (Total)
    R1        2.73947  -0.00884   0.00000  -0.01501  -0.01501   2.72446
    R2        3.33852   0.00519   0.00000   0.02414   0.02414   3.36266
    R3        3.00607  -0.00240   0.00000  -0.00875  -0.00875   2.99732
    R4        2.73947  -0.00884   0.00000  -0.01700  -0.01700   2.72246
    R5        2.49165  -0.02771   0.00000  -0.06550  -0.06552   2.42613
    R6        3.22311   0.02150   0.00000   0.07608   0.07622   3.29934
    R7        2.61769  -0.00937   0.00000  -0.01176  -0.01194   2.60575
    R8        2.64276   0.01359   0.00000   0.02753   0.02741   2.67017
    R9        2.66354  -0.00796   0.00000  -0.01687  -0.01690   2.64664
   R10        2.65431  -0.00733   0.00000  -0.01462  -0.01461   2.63970
   R11        3.25688   0.00561   0.00000   0.03406   0.03416   3.29104
   R12        2.64231  -0.00974   0.00000  -0.01887  -0.01884   2.62347
   R13        2.05244  -0.00019   0.00000  -0.00037  -0.00037   2.05208
   R14        2.62909   0.01399   0.00000   0.02589   0.02590   2.65499
   R15        2.05687  -0.00119   0.00000  -0.00297  -0.00297   2.05390
   R16        2.64327  -0.01288   0.00000  -0.02696  -0.02698   2.61629
   R17        2.05572  -0.00115   0.00000  -0.00248  -0.00248   2.05324
   R18        2.05192   0.00011   0.00000  -0.00022  -0.00022   2.05169
    A1        1.86558   0.00665   0.00000   0.03434   0.03277   1.89835
    A2        1.85218   0.00761   0.00000   0.03516   0.03510   1.88729
    A3        2.14331  -0.00139   0.00000  -0.00921  -0.01163   2.13168
    A4        1.87049  -0.03360   0.00000  -0.18325  -0.18253   1.68797
    A5        1.86558   0.00665   0.00000   0.06039   0.05931   1.92489
    A6        1.85219   0.00761   0.00000   0.02699   0.02883   1.88102
    A7        2.19620  -0.01316   0.00000  -0.06361  -0.06385   2.13234
    A8        2.04633   0.00114   0.00000   0.03664   0.03635   2.08268
    A9        2.04066   0.01202   0.00000   0.02697   0.02680   2.06746
   A10        1.90178   0.00040   0.00000   0.00738   0.00709   1.90887
   A11        2.01560   0.00036   0.00000  -0.00377  -0.00400   2.01161
   A12        2.19587  -0.00491   0.00000  -0.01798  -0.01783   2.17804
   A13        2.07171   0.00454   0.00000   0.02175   0.02182   2.09354
   A14        2.12742  -0.00062   0.00000  -0.00917  -0.00920   2.11822
   A15        1.90355   0.00005   0.00000   0.00839   0.00838   1.91193
   A16        2.25222   0.00057   0.00000   0.00077   0.00075   2.25297
   A17        2.06362  -0.00393   0.00000  -0.00915  -0.00913   2.05449
   A18        2.11288   0.00170   0.00000   0.00388   0.00387   2.11675
   A19        2.10668   0.00222   0.00000   0.00527   0.00526   2.11194
   A20        2.10970   0.00243   0.00000   0.00911   0.00912   2.11883
   A21        2.08511  -0.00243   0.00000  -0.00582  -0.00583   2.07927
   A22        2.08838   0.00000   0.00000  -0.00328  -0.00329   2.08509
   A23        2.10231   0.00309   0.00000   0.00790   0.00788   2.11019
   A24        2.09329  -0.00086   0.00000  -0.00856  -0.00855   2.08474
   A25        2.08759  -0.00223   0.00000   0.00066   0.00067   2.08826
   A26        2.09161  -0.00551   0.00000  -0.02044  -0.02050   2.07111
   A27        2.08828   0.00118   0.00000  -0.00504  -0.00501   2.08327
   A28        2.10330   0.00433   0.00000   0.02547   0.02550   2.12880
   A29        1.56319  -0.01284   0.00000  -0.03897  -0.03849   1.52470
    D1        1.97965  -0.00379   0.00000   0.29623   0.29513   2.27479
    D2       -1.16193  -0.00379   0.00000   0.25467   0.25408  -0.90785
    D3       -0.00001  -0.00000   0.00000   0.32505   0.32394   0.32393
    D4       -3.14159  -0.00000   0.00000   0.28349   0.28288  -2.85871
    D5       -1.97967   0.00379   0.00000   0.35103   0.35248  -1.62719
    D6        1.16193   0.00379   0.00000   0.30947   0.31143   1.47336
    D7       -3.14158  -0.00000   0.00000  -0.05298  -0.05222   3.08938
    D8        0.00001  -0.00000   0.00000  -0.01154  -0.01151  -0.01151
    D9        3.14158   0.00000   0.00000   0.05537   0.05694  -3.08467
   D10       -0.00001   0.00000   0.00000   0.01758   0.01742   0.01741
   D11       -0.00000   0.00000   0.00000  -0.00308  -0.00305  -0.00305
   D12        3.14159   0.00000   0.00000  -0.00045  -0.00046   3.14113
   D13        3.14159   0.00000   0.00000   0.00395   0.00407  -3.13753
   D14       -0.00001   0.00000   0.00000   0.01545   0.01542   0.01542
   D15       -0.00000   0.00000   0.00000   0.00153   0.00162   0.00161
   D16        3.14159   0.00000   0.00000   0.01302   0.01297  -3.12863
   D17       -3.14159   0.00000   0.00000  -0.00494  -0.00496   3.13663
   D18        0.00001  -0.00000   0.00000  -0.00200  -0.00205  -0.00204
   D19        0.00000   0.00000   0.00000  -0.00224  -0.00226  -0.00226
   D20       -3.14159  -0.00000   0.00000   0.00070   0.00065  -3.14093
   D21       -0.00000   0.00000   0.00000   0.00006  -0.00001  -0.00001
   D22        3.14159   0.00000   0.00000   0.00063   0.00056  -3.14104
   D23       -3.14159  -0.00000   0.00000  -0.01392  -0.01380   3.12780
   D24       -0.00000   0.00000   0.00000  -0.01335  -0.01322  -0.01323
   D25        0.00001  -0.00000   0.00000  -0.01744  -0.01688  -0.01688
   D26       -3.14159  -0.00000   0.00000  -0.00487  -0.00439   3.13720
   D27        0.00001  -0.00000   0.00000  -0.00096  -0.00091  -0.00090
   D28        3.14159   0.00000   0.00000  -0.00052  -0.00050   3.14109
   D29       -3.14158  -0.00000   0.00000  -0.00152  -0.00148   3.14012
   D30       -0.00000   0.00000   0.00000  -0.00109  -0.00107  -0.00107
   D31       -0.00001   0.00000   0.00000   0.00023   0.00023   0.00022
   D32        3.14157   0.00000   0.00000  -0.00058  -0.00060   3.14096
   D33       -3.14159  -0.00000   0.00000  -0.00021  -0.00018   3.14142
   D34       -0.00001   0.00000   0.00000  -0.00102  -0.00101  -0.00103
   D35        0.00001  -0.00000   0.00000   0.00140   0.00137   0.00138
   D36        3.14159   0.00000   0.00000  -0.00157  -0.00163   3.13997
   D37       -3.14157  -0.00000   0.00000   0.00220   0.00221  -3.13936
   D38        0.00002  -0.00000   0.00000  -0.00076  -0.00079  -0.00077
         Item               Value     Threshold  Converged?
 Maximum Force            0.033603     0.000450     NO 
 RMS     Force            0.007131     0.000300     NO 
 Maximum Displacement     0.630076     0.001800     NO 
 RMS     Displacement     0.165346     0.001200     NO 
 Predicted change in Energy=-9.124430D-03
 GradGradGradGradGradGradGradGradGradGradGradGradGradGradGradGradGradGrad

                          Input orientation:                          
 ---------------------------------------------------------------------
 Center     Atomic      Atomic             Coordinates (Angstroms)
 Number     Number       Type             X           Y           Z
 ---------------------------------------------------------------------
      1          8           0        4.155604   -1.253939   -0.494968
      2         16           0        3.577150    0.066562   -0.479854
      3          6           0        1.812238   -0.083472   -0.309559
      4          7           0        1.150624    0.583947    0.565140
      5          6           0       -0.194730    0.317679    0.421971
      6          6           0       -0.523548   -0.586721   -0.612671
      7          6           0       -1.848913   -0.942883   -0.873056
      8          6           0       -2.837351   -0.377255   -0.079096
      9          6           0       -2.521699    0.522208    0.953010
     10          6           0       -1.208155    0.874832    1.211952
     11         16           0        0.933102   -1.124099   -1.401574
     12          9           0        3.847156    0.707493    0.945648
     13          8           0        3.900593    1.056329   -1.475474
     14          1           0       -2.100032   -1.638470   -1.668231
     15          1           0       -3.876548   -0.637923   -0.261904
     16          1           0       -3.320729    0.946527    1.554715
     17          1           0       -0.944760    1.569186    2.003951
 ---------------------------------------------------------------------
                    Distance matrix (angstroms):
                    1          2          3          4          5
     1  O    0.000000
     2  S    1.441721   0.000000
     3  C    2.625973   1.779445   0.000000
     4  N    3.678527   2.692160   1.283853   0.000000
     5  C    4.715524   3.886312   2.173471   1.378903   0.000000
     6  C    4.727949   4.154533   2.408533   2.358083   1.412992
     7  C    6.024445   5.533150   3.802650   3.660170   2.449987
     8  C    7.059954   6.442314   4.664558   4.152457   2.778030
     9  C    7.059583   6.281455   4.554552   3.693266   2.395542
    10  C    6.017903   5.139519   3.515127   2.463091   1.400543
    11  S    3.350121   3.042734   1.745933   2.613944   2.583805
    12  F    2.453106   1.586112   2.518345   2.726047   4.094268
    13  O    2.522649   1.440664   2.649478   3.456817   4.573573
    14  H    6.376314   6.045640   4.423783   4.527013   3.438843
    15  H    8.059110   7.490088   5.715940   5.239220   3.864796
    16  H    8.058461   7.245311   5.557316   4.593878   3.383848
    17  H    6.342581   5.373531   3.960384   2.726079   2.152086
                    6          7          8          9         10
     6  C    0.000000
     7  C    1.396870   0.000000
     8  C    2.383750   1.388279   0.000000
     9  C    2.770142   2.435908   1.404960   0.000000
    10  C    2.435995   2.839352   2.426686   1.384483   0.000000
    11  S    1.741543   2.837566   4.064855   4.493334   3.925714
    12  F    4.817302   6.202953   6.849045   6.371554   5.065085
    13  O    4.797611   6.116910   7.028864   6.886847   5.775336
    14  H    2.169259   1.085912   2.158624   3.423045   3.925250
    15  H    3.371686   2.139582   1.086875   2.158132   3.403087
    16  H    3.856505   3.410305   2.157635   1.086528   2.141400
    17  H    3.416440   3.924940   3.421932   2.165035   1.085710
                   11         12         13         14         15
    11  S    0.000000
    12  F    4.166040   0.000000
    13  O    3.683169   2.446707   0.000000
    14  H    3.087974   6.906876   6.580775   0.000000
    15  H    4.966684   7.932460   8.051532   2.476866   0.000000
    16  H    5.578729   7.197685   7.832087   4.308096   2.473766
    17  H    4.730513   4.982467   5.987225   5.010851   4.312865
                   16         17
    16  H    0.000000
    17  H    2.496947   0.000000
 Stoichiometry    C7H4FNO2S2
 Framework group  C1[X(C7H4FNO2S2)]
 Deg. of freedom    45
 Full point group                 C1      NOp   1
 Largest Abelian subgroup         C1      NOp   1
 Largest concise Abelian subgroup C1      NOp   1
                         Standard orientation:                         
 ---------------------------------------------------------------------
 Center     Atomic      Atomic             Coordinates (Angstroms)
 Number     Number       Type             X           Y           Z
 ---------------------------------------------------------------------
      1          8           0        2.990632   -0.775635    0.993968
      2         16           0        2.453957    0.065180   -0.046978
      3          6           0        0.677138   -0.004864    0.019603
      4          7           0       -0.049157    1.053800    0.022162
      5          6           0       -1.380532    0.695066    0.011050
      6          6           0       -1.630093   -0.695631   -0.004025
      7          6           0       -2.932441   -1.200447   -0.021254
      8          6           0       -3.978632   -0.287869   -0.023083
      9          6           0       -3.742055    1.096937   -0.007087
     10          6           0       -2.451424    1.597679    0.010831
     11         16           0       -0.117973   -1.559238    0.021418
     12          9           0        2.597432    1.575609    0.415373
     13          8           0        2.906512   -0.021808   -1.411947
     14          1           0       -3.122670   -2.269510   -0.032312
     15          1           0       -5.001380   -0.655419   -0.036830
     16          1           0       -4.584704    1.782852   -0.009636
     17          1           0       -2.248701    2.664238    0.021859
 ---------------------------------------------------------------------
 Rotational constants (GHZ):           1.7297096           0.3875630           0.3382707
 Standard basis: 6-31G(d) (6D, 7F)
 There are   211 symmetry adapted cartesian basis functions of A   symmetry.
 There are   211 symmetry adapted basis functions of A   symmetry.
   211 basis functions,   428 primitive gaussians,   211 cartesian basis functions
    55 alpha electrons       55 beta electrons
       nuclear repulsion energy      1014.8833900514 Hartrees.
 NAtoms=   17 NActive=   17 NUniq=   17 SFac= 1.00D+00 NAtFMM=   60 NAOKFM=F Big=F
 Integral buffers will be    131072 words long.
 Raffenetti 2 integral format.
 Two-electron integral symmetry is turned on.
 R6APFD:  NTU= -4 IXU= 1 FactS= 1.050
 Nuclear repulsion after empirical dispersion term =     1014.8681485320 Hartrees.
 One-electron integrals computed using PRISM.
 NBasis=   211 RedAO= T EigKep=  4.61D-04  NBF=   211
 NBsUse=   211 1.00D-06 EigRej= -1.00D+00 NBFU=   211
 Initial guess from the checkpoint file:  "WNKAAUWKENUQEO-UHFFFAOYSA-N_conf_0_0.chk"
 B after Tr=    -0.000000   -0.000000   -0.000000
         Rot=    0.998656   -0.051726   -0.000139   -0.003183 Ang=  -5.94 deg.
 ExpMin= 1.17D-01 ExpMax= 2.19D+04 ExpMxC= 3.30D+03 IAcc=2 IRadAn=         4 AccDes= 0.00D+00
 Harris functional with IExCor= 3731 and IRadAn=       4 diagonalized for initial guess.
 HarFok:  IExCor= 3731 AccDes= 0.00D+00 IRadAn=         4 IDoV= 1 UseB2=F ITyADJ=14
 ICtDFT=  3500011 ScaDFX=  1.000000  1.000000  1.000000  1.000000
 FoFCou: FMM=F IPFlag=           0 FMFlag=      100000 FMFlg1=           0
         NFxFlg=           0 DoJE=T BraDBF=F KetDBF=T FulRan=T
         wScrn=  0.000000 ICntrl=       500 IOpCl=  0 I1Cent=   200000004 NGrid=           0
         NMat0=    1 NMatS0=      1 NMatT0=    0 NMatD0=    1 NMtDS0=    0 NMtDT0=    0
 Petite list used in FoFCou.
 Keep R1 ints in memory in canonical form, NReq=254895406.
 Requested convergence on RMS density matrix=1.00D-08 within  32 cycles.
 Requested convergence on MAX density matrix=1.00D-06.
 Requested convergence on             energy=1.00D-06.
 No special actions if energy rises.
 Integral accuracy reduced to 1.0D-05 until final iterations.
 Initial convergence to 1.0D-05 achieved.  Increase integral accuracy.
 SCF Done:  E(RAPFD) =  -1369.84954413     A.U. after   15 cycles
            NFock= 15  Conv=0.43D-08     -V/T= 2.0054
 QCSCF skips out because SCF is already converged.
 R6APFD:  NTU= -4 IXU= 1 FactS= 1.050
 Calling FoFJK, ICntrl=      2127 FMM=F ISym2X=0 I1Cent= 0 IOpClX= 0 NMat=1 NMatS=1 NMatT=0.
 ***** Axes restored to original set *****
 -------------------------------------------------------------------
 Center     Atomic                   Forces (Hartrees/Bohr)
 Number     Number              X              Y              Z
 -------------------------------------------------------------------
      1        8           0.000955308   -0.000412619    0.000250532
      2       16          -0.001352732   -0.001571877   -0.001592125
      3        6          -0.000040472   -0.000861085   -0.000206263
      4        7          -0.002889692    0.002961427    0.001087280
      5        6           0.000026105    0.000508726    0.000905618
      6        6          -0.000406546   -0.000754001   -0.000376989
      7        6          -0.000212073   -0.000244872    0.000124004
      8        6          -0.000131536   -0.000575273   -0.000712645
      9        6           0.000269163    0.000461728    0.000529882
     10        6          -0.000141398    0.000467320    0.000531169
     11       16          -0.001080278   -0.002457433   -0.002978138
     12        9           0.003992514    0.001032287    0.001941824
     13        8           0.000791674    0.001484704    0.000629702
     14        1           0.000022725   -0.000004063   -0.000005210
     15        1           0.000019762    0.000041797   -0.000033444
     16        1          -0.000041639   -0.000052235   -0.000048450
     17        1           0.000219115   -0.000024529   -0.000046749
 -------------------------------------------------------------------
 Cartesian Forces:  Max     0.003992514 RMS     0.001181799

 GradGradGradGradGradGradGradGradGradGradGradGradGradGradGradGradGradGrad
 Berny optimization.
 Using GEDIIS/GDIIS optimizer.
 FormGI is forming the generalized inverse of G from B-inverse, IUseBI=4.
 Internal  Forces:  Max     0.008097788 RMS     0.001340902
 Search for a local minimum.
 Step number   2 out of a maximum of   95
 All quantities printed in internal units (Hartrees-Bohrs-Radians)
 Mixed Optimization -- RFO/linear search
 Update second derivatives using D2CorX and points    1    2
 DE= -8.13D-03 DEPred=-9.12D-03 R= 8.91D-01
 TightC=F SS=  1.41D+00  RLast= 7.94D-01 DXNew= 5.0454D-01 2.3835D+00
 Trust test= 8.91D-01 RLast= 7.94D-01 DXMaxT set to 5.05D-01
 ITU=  1  0
 Use linear search instead of GDIIS.
     Eigenvalues ---   -0.00301   0.01464   0.01617   0.01733   0.01875
     Eigenvalues ---    0.01936   0.02275   0.02521   0.02758   0.02801
     Eigenvalues ---    0.03070   0.03967   0.11015   0.11362   0.12387
     Eigenvalues ---    0.12422   0.12504   0.14416   0.15679   0.16611
     Eigenvalues ---    0.18635   0.18925   0.19058   0.19156   0.20415
     Eigenvalues ---    0.21244   0.22895   0.25053   0.27680   0.31243
     Eigenvalues ---    0.31998   0.36106   0.36345   0.36765   0.36962
     Eigenvalues ---    0.37167   0.40147   0.40632   0.43223   0.45765
     Eigenvalues ---    0.46493   0.50285   0.52267   0.67036   0.67307
 RFO step:  Lambda=-3.71417302D-03 EMin=-3.00953287D-03
 Quartic linear search produced a step of -0.02434.
 Iteration  1 RMS(Cart)=  0.09044139 RMS(Int)=  0.05399434
 Iteration  2 RMS(Cart)=  0.08845904 RMS(Int)=  0.00657086
 Iteration  3 RMS(Cart)=  0.00737933 RMS(Int)=  0.00012749
 Iteration  4 RMS(Cart)=  0.00004686 RMS(Int)=  0.00012443
 Iteration  5 RMS(Cart)=  0.00000001 RMS(Int)=  0.00012443
 Variable       Old X    -DE/DX   Delta X   Delta X   Delta X     New X
                                 (Linear)    (Quad)   (Total)
    R1        2.72446   0.00076   0.00037   0.00249   0.00285   2.72731
    R2        3.36266   0.00428  -0.00059   0.01309   0.01250   3.37517
    R3        2.99732   0.00284   0.00021   0.00879   0.00900   3.00632
    R4        2.72246   0.00076   0.00041   0.00002   0.00043   2.72289
    R5        2.42613   0.00348   0.00159   0.00400   0.00565   2.43178
    R6        3.29934   0.00340  -0.00186   0.00967   0.00787   3.30721
    R7        2.60575  -0.00000   0.00029   0.00038   0.00067   2.60642
    R8        2.67017   0.00164  -0.00067   0.00151   0.00078   2.67095
    R9        2.64664   0.00019   0.00041   0.00054   0.00095   2.64759
   R10        2.63970   0.00011   0.00036   0.00033   0.00069   2.64039
   R11        3.29104   0.00087  -0.00083   0.00162   0.00074   3.29178
   R12        2.62347  -0.00008   0.00046   0.00014   0.00060   2.62406
   R13        2.05208   0.00000   0.00001   0.00001   0.00002   2.05210
   R14        2.65499   0.00095  -0.00063   0.00097   0.00033   2.65532
   R15        2.05390  -0.00002   0.00007  -0.00002   0.00005   2.05395
   R16        2.61629   0.00008   0.00066   0.00043   0.00109   2.61738
   R17        2.05324  -0.00002   0.00006   0.00000   0.00006   2.05330
   R18        2.05169   0.00000   0.00001  -0.00006  -0.00005   2.05164
    A1        1.89835   0.00064  -0.00080  -0.02249  -0.02318   1.87517
    A2        1.88729  -0.00307  -0.00085  -0.00579  -0.00641   1.88088
    A3        2.13168  -0.00073   0.00028   0.00378   0.00414   2.13582
    A4        1.68797   0.00810   0.00444   0.03346   0.03785   1.72582
    A5        1.92489   0.00038  -0.00144   0.01338   0.01188   1.93677
    A6        1.88102  -0.00343  -0.00070  -0.01554  -0.01658   1.86444
    A7        2.13234   0.00168   0.00155   0.01137   0.01243   2.14478
    A8        2.08268  -0.00096  -0.00088  -0.01176  -0.01309   2.06959
    A9        2.06746  -0.00073  -0.00065  -0.00149  -0.00239   2.06507
   A10        1.90887  -0.00003  -0.00017   0.00013   0.00009   1.90896
   A11        2.01161   0.00027   0.00010   0.00063   0.00069   2.01230
   A12        2.17804  -0.00048   0.00043  -0.00174  -0.00129   2.17675
   A13        2.09354   0.00021  -0.00053   0.00111   0.00059   2.09412
   A14        2.11822  -0.00029   0.00022  -0.00096  -0.00073   2.11749
   A15        1.91193   0.00074  -0.00020   0.00191   0.00160   1.91353
   A16        2.25297  -0.00045  -0.00002  -0.00110  -0.00111   2.25187
   A17        2.05449   0.00004   0.00022   0.00019   0.00041   2.05490
   A18        2.11675  -0.00004  -0.00009  -0.00018  -0.00027   2.11648
   A19        2.11194   0.00000  -0.00013  -0.00001  -0.00013   2.11181
   A20        2.11883   0.00017  -0.00022   0.00043   0.00020   2.11903
   A21        2.07927  -0.00009   0.00014   0.00008   0.00023   2.07950
   A22        2.08509  -0.00008   0.00008  -0.00051  -0.00043   2.08466
   A23        2.11019   0.00013  -0.00019   0.00004  -0.00016   2.11003
   A24        2.08474  -0.00015   0.00021  -0.00097  -0.00076   2.08398
   A25        2.08826   0.00002  -0.00002   0.00093   0.00092   2.08918
   A26        2.07111  -0.00026   0.00050  -0.00081  -0.00031   2.07080
   A27        2.08327  -0.00010   0.00012  -0.00149  -0.00137   2.08190
   A28        2.12880   0.00036  -0.00062   0.00229   0.00167   2.13047
   A29        1.52470  -0.00024   0.00094  -0.00156  -0.00054   1.52416
    D1        2.27479   0.00081  -0.00718   0.43416   0.42692   2.70170
    D2       -0.90785   0.00065  -0.00618   0.37966   0.37337  -0.53448
    D3        0.32393   0.00063  -0.00788   0.43255   0.42494   0.74887
    D4       -2.85871   0.00047  -0.00689   0.37805   0.37140  -2.48731
    D5       -1.62719   0.00070  -0.00858   0.43109   0.42236  -1.20483
    D6        1.47336   0.00054  -0.00758   0.37659   0.36881   1.84217
    D7        3.08938   0.00031   0.00127  -0.06140  -0.06049   3.02890
    D8       -0.01151   0.00048   0.00028  -0.00711  -0.00683  -0.01834
    D9       -3.08467  -0.00039  -0.00139   0.06621   0.06435  -3.02032
   D10        0.01741  -0.00049  -0.00042   0.01405   0.01365   0.03105
   D11       -0.00305  -0.00019   0.00007  -0.00636  -0.00630  -0.00935
   D12        3.14113  -0.00020   0.00001  -0.00366  -0.00363   3.13750
   D13       -3.13753  -0.00005  -0.00010   0.00350   0.00342  -3.13411
   D14        0.01542  -0.00014  -0.00038   0.01641   0.01610   0.03152
   D15        0.00161  -0.00004  -0.00004   0.00093   0.00088   0.00250
   D16       -3.12863  -0.00013  -0.00032   0.01385   0.01357  -3.11506
   D17        3.13663   0.00003   0.00012  -0.00519  -0.00509   3.13154
   D18       -0.00204   0.00002   0.00005  -0.00202  -0.00199  -0.00403
   D19       -0.00226   0.00002   0.00006  -0.00237  -0.00231  -0.00457
   D20       -3.14093   0.00000  -0.00002   0.00080   0.00079  -3.14014
   D21       -0.00001   0.00005   0.00000   0.00108   0.00109   0.00108
   D22       -3.14104  -0.00002  -0.00001   0.00110   0.00110  -3.13994
   D23        3.12780   0.00016   0.00034  -0.01458  -0.01427   3.11353
   D24       -0.01323   0.00009   0.00032  -0.01456  -0.01426  -0.02749
   D25       -0.01688   0.00031   0.00041  -0.01577  -0.01543  -0.03230
   D26        3.13720   0.00022   0.00011  -0.00157  -0.00148   3.13572
   D27       -0.00090  -0.00003   0.00002  -0.00166  -0.00164  -0.00254
   D28        3.14109  -0.00005   0.00001  -0.00122  -0.00121   3.13987
   D29        3.14012   0.00004   0.00004  -0.00167  -0.00165   3.13848
   D30       -0.00107   0.00002   0.00003  -0.00124  -0.00122  -0.00229
   D31        0.00022   0.00000  -0.00001   0.00021   0.00021   0.00043
   D32        3.14096   0.00000   0.00001  -0.00055  -0.00054   3.14042
   D33        3.14142   0.00003   0.00000  -0.00022  -0.00022   3.14120
   D34       -0.00103   0.00003   0.00002  -0.00099  -0.00097  -0.00199
   D35        0.00138   0.00000  -0.00003   0.00183   0.00179   0.00317
   D36        3.13997   0.00002   0.00004  -0.00144  -0.00141   3.13856
   D37       -3.13936   0.00000  -0.00005   0.00259   0.00254  -3.13682
   D38       -0.00077   0.00002   0.00002  -0.00067  -0.00066  -0.00143
         Item               Value     Threshold  Converged?
 Maximum Force            0.008098     0.000450     NO 
 RMS     Force            0.001341     0.000300     NO 
 Maximum Displacement     0.865161     0.001800     NO 
 RMS     Displacement     0.179318     0.001200     NO 
 Predicted change in Energy=-3.174729D-03
 GradGradGradGradGradGradGradGradGradGradGradGradGradGradGradGradGradGrad

                          Input orientation:                          
 ---------------------------------------------------------------------
 Center     Atomic      Atomic             Coordinates (Angstroms)
 Number     Number       Type             X           Y           Z
 ---------------------------------------------------------------------
      1          8           0        4.094259   -1.163382   -0.952792
      2         16           0        3.574813    0.103439   -0.496444
      3          6           0        1.815886   -0.094107   -0.257344
      4          7           0        1.134934    0.635207    0.555289
      5          6           0       -0.206447    0.346482    0.414990
      6          6           0       -0.515021   -0.633230   -0.555917
      7          6           0       -1.835062   -1.015683   -0.807880
      8          6           0       -2.838245   -0.399100   -0.071918
      9          6           0       -2.542612    0.574772    0.896887
     10          6           0       -1.234224    0.952722    1.149209
     11         16           0        0.956087   -1.233467   -1.269990
     12          9           0        4.010029    0.287716    1.022607
     13          8           0        3.867799    1.344311   -1.167687
     14          1           0       -2.070959   -1.769604   -1.552988
     15          1           0       -3.873448   -0.678091   -0.250449
     16          1           0       -3.353372    1.037142    1.453211
     17          1           0       -0.984416    1.704873    1.891214
 ---------------------------------------------------------------------
                    Distance matrix (angstroms):
                    1          2          3          4          5
     1  O    0.000000
     2  S    1.443230   0.000000
     3  C    2.611126   1.786062   0.000000
     4  N    3.777147   2.709599   1.286844   0.000000
     5  C    4.758843   3.897141   2.176231   1.379256   0.000000
     6  C    4.656611   4.156074   2.411000   2.359250   1.413405
     7  C    5.932930   5.533188   3.805497   3.661222   2.450162
     8  C    7.029913   6.446711   4.667798   4.153232   2.778369
     9  C    7.105670   6.291773   4.558086   3.693871   2.396249
    10  C    6.106475   5.153280   3.518155   2.463020   1.401046
    11  S    3.154940   3.040299   1.750099   2.618315   2.585901
    12  F    2.452545   1.590876   2.568721   2.933481   4.260437
    13  O    2.527051   1.440893   2.666105   3.307571   4.483303
    14  H    6.223958   6.041466   4.426460   4.528322   3.439064
    15  H    8.013310   7.493189   5.719231   5.240024   3.865159
    16  H    8.130089   7.257595   5.561200   4.594856   3.384974
    17  H    6.489083   5.389997   3.961606   2.724064   2.151674
                    6          7          8          9         10
     6  C    0.000000
     7  C    1.397235   0.000000
     8  C    2.384627   1.388594   0.000000
     9  C    2.771468   2.436475   1.405137   0.000000
    10  C    2.437202   2.840040   2.427232   1.385060   0.000000
    11  S    1.741937   2.837514   4.065527   4.495106   3.928029
    12  F    4.880159   6.262158   6.969115   6.560130   5.287765
    13  O    4.847065   6.182366   7.015071   6.778497   5.617116
    14  H    2.169433   1.085923   2.158837   3.423513   3.925946
    15  H    3.372589   2.140027   1.086901   2.158048   3.403542
    16  H    3.857846   3.410556   2.157351   1.086560   2.142505
    17  H    3.416944   3.925575   3.423050   2.166515   1.085683
                   11         12         13         14         15
    11  S    0.000000
    12  F    4.110543   0.000000
    13  O    3.890176   2.435982   0.000000
    14  H    3.087157   6.916984   6.716678   0.000000
    15  H    4.967124   8.043797   8.053467   2.477291   0.000000
    16  H    5.580584   7.413955   7.688222   4.308089   2.472845
    17  H    4.732083   5.263772   5.747249   5.011496   4.314133
                   16         17
    16  H    0.000000
    17  H    2.499932   0.000000
 Stoichiometry    C7H4FNO2S2
 Framework group  C1[X(C7H4FNO2S2)]
 Deg. of freedom    45
 Full point group                 C1      NOp   1
 Largest Abelian subgroup         C1      NOp   1
 Largest concise Abelian subgroup C1      NOp   1
                         Standard orientation:                         
 ---------------------------------------------------------------------
 Center     Atomic      Atomic             Coordinates (Angstroms)
 Number     Number       Type             X           Y           Z
 ---------------------------------------------------------------------
      1          8           0        2.975238   -1.112344    0.512114
      2         16           0        2.449868    0.084410   -0.099998
      3          6           0        0.670697    0.022534    0.044008
      4          7           0       -0.067286    1.076738    0.045421
      5          6           0       -1.395473    0.705543    0.023485
      6          6           0       -1.632835   -0.687462   -0.006701
      7          6           0       -2.931250   -1.202504   -0.040089
      8          6           0       -3.985221   -0.298444   -0.044001
      9          6           0       -3.760686    1.088277   -0.012418
     10          6           0       -2.474029    1.599773    0.023293
     11         16           0       -0.115293   -1.541137    0.044779
     12          9           0        2.734078    1.299366    0.886912
     13          8           0        2.845949    0.515221   -1.416696
     14          1           0       -3.112563   -2.272964   -0.061731
     15          1           0       -5.004778   -0.674089   -0.071346
     16          1           0       -4.609653    1.766393   -0.017653
     17          1           0       -2.278621    2.667500    0.045271
 ---------------------------------------------------------------------
 Rotational constants (GHZ):           1.7356531           0.3842667           0.3362732
 Standard basis: 6-31G(d) (6D, 7F)
 There are   211 symmetry adapted cartesian basis functions of A   symmetry.
 There are   211 symmetry adapted basis functions of A   symmetry.
   211 basis functions,   428 primitive gaussians,   211 cartesian basis functions
    55 alpha electrons       55 beta electrons
       nuclear repulsion energy      1013.1026137254 Hartrees.
 NAtoms=   17 NActive=   17 NUniq=   17 SFac= 1.00D+00 NAtFMM=   60 NAOKFM=F Big=F
 Integral buffers will be    131072 words long.
 Raffenetti 2 integral format.
 Two-electron integral symmetry is turned on.
 R6APFD:  NTU= -4 IXU= 1 FactS= 1.050
 Nuclear repulsion after empirical dispersion term =     1013.0873173917 Hartrees.
 One-electron integrals computed using PRISM.
 NBasis=   211 RedAO= T EigKep=  4.63D-04  NBF=   211
 NBsUse=   211 1.00D-06 EigRej= -1.00D+00 NBFU=   211
 Initial guess from the checkpoint file:  "WNKAAUWKENUQEO-UHFFFAOYSA-N_conf_0_0.chk"
 B after Tr=     0.000000    0.000000    0.000000
         Rot=    0.997881   -0.065014   -0.002067    0.001335 Ang=  -7.46 deg.
 ExpMin= 1.17D-01 ExpMax= 2.19D+04 ExpMxC= 3.30D+03 IAcc=2 IRadAn=         4 AccDes= 0.00D+00
 Harris functional with IExCor= 3731 and IRadAn=       4 diagonalized for initial guess.
 HarFok:  IExCor= 3731 AccDes= 0.00D+00 IRadAn=         4 IDoV= 1 UseB2=F ITyADJ=14
 ICtDFT=  3500011 ScaDFX=  1.000000  1.000000  1.000000  1.000000
 FoFCou: FMM=F IPFlag=           0 FMFlag=      100000 FMFlg1=           0
         NFxFlg=           0 DoJE=T BraDBF=F KetDBF=T FulRan=T
         wScrn=  0.000000 ICntrl=       500 IOpCl=  0 I1Cent=   200000004 NGrid=           0
         NMat0=    1 NMatS0=      1 NMatT0=    0 NMatD0=    1 NMtDS0=    0 NMtDT0=    0
 Petite list used in FoFCou.
 Keep R1 ints in memory in canonical form, NReq=254895406.
 Requested convergence on RMS density matrix=1.00D-08 within  32 cycles.
 Requested convergence on MAX density matrix=1.00D-06.
 Requested convergence on             energy=1.00D-06.
 No special actions if energy rises.
 Integral accuracy reduced to 1.0D-05 until final iterations.
 Initial convergence to 1.0D-05 achieved.  Increase integral accuracy.
 SCF Done:  E(RAPFD) =  -1369.85132293     A.U. after   15 cycles
            NFock= 15  Conv=0.50D-08     -V/T= 2.0054
 QCSCF skips out because SCF is already converged.
 R6APFD:  NTU= -4 IXU= 1 FactS= 1.050
 Calling FoFJK, ICntrl=      2127 FMM=F ISym2X=0 I1Cent= 0 IOpClX= 0 NMat=1 NMatS=1 NMatT=0.
 ***** Axes restored to original set *****
 -------------------------------------------------------------------
 Center     Atomic                   Forces (Hartrees/Bohr)
 Number     Number              X              Y              Z
 -------------------------------------------------------------------
      1        8           0.000363516   -0.000110667    0.000093332
      2       16          -0.000784819   -0.001016922   -0.002706547
      3        6          -0.000283759    0.001503558    0.001655546
      4        7          -0.000133789    0.001634186   -0.002064485
      5        6           0.001295533    0.001049329    0.001789376
      6        6           0.000768539   -0.002191360   -0.000042965
      7        6          -0.000623586   -0.000015733    0.000551709
      8        6           0.000260258   -0.000897662   -0.001086482
      9        6           0.001068629    0.000805343    0.000744805
     10        6          -0.000789234    0.000430189    0.000143923
     11       16          -0.000220822   -0.000745483   -0.002276270
     12        9          -0.000278709   -0.000445800    0.001837638
     13        8          -0.000839578    0.000012008    0.001389032
     14        1           0.000051043   -0.000018162    0.000023246
     15        1           0.000039397    0.000059652   -0.000084730
     16        1           0.000062048   -0.000032923    0.000023858
     17        1           0.000045332   -0.000019553    0.000009014
 -------------------------------------------------------------------
 Cartesian Forces:  Max     0.002706547 RMS     0.000995637

 GradGradGradGradGradGradGradGradGradGradGradGradGradGradGradGradGradGrad
 Berny optimization.
 Using GEDIIS/GDIIS optimizer.
 FormGI is forming the generalized inverse of G from B-inverse, IUseBI=4.
 Internal  Forces:  Max     0.002239491 RMS     0.000775508
 Search for a local minimum.
 Step number   3 out of a maximum of   95
 All quantities printed in internal units (Hartrees-Bohrs-Radians)
 Mixed Optimization -- En-DIIS/RFO-DIIS
 Update second derivatives using D2CorX and points    2    3
 DE= -1.78D-03 DEPred=-3.17D-03 R= 5.60D-01
 TightC=F SS=  1.41D+00  RLast= 9.83D-01 DXNew= 8.4853D-01 2.9500D+00
 Trust test= 5.60D-01 RLast= 9.83D-01 DXMaxT set to 8.49D-01
 ITU=  1  1  0
 Use linear search instead of GDIIS.
     Eigenvalues ---    0.00037   0.01481   0.01684   0.01745   0.01890
     Eigenvalues ---    0.01939   0.02277   0.02525   0.02758   0.02801
     Eigenvalues ---    0.03099   0.04246   0.11031   0.11364   0.12405
     Eigenvalues ---    0.12439   0.13343   0.14527   0.15690   0.16714
     Eigenvalues ---    0.18752   0.19085   0.19114   0.19398   0.20968
     Eigenvalues ---    0.22767   0.23949   0.26283   0.28724   0.31541
     Eigenvalues ---    0.33924   0.36128   0.36351   0.36768   0.36985
     Eigenvalues ---    0.37379   0.40199   0.42458   0.44704   0.46120
     Eigenvalues ---    0.47012   0.50916   0.64945   0.67301   0.75587
 RFO step:  Lambda=-7.49782259D-04 EMin= 3.72407288D-04
 Quartic linear search produced a step of  0.40624.
 Iteration  1 RMS(Cart)=  0.09258373 RMS(Int)=  0.03185170
 Iteration  2 RMS(Cart)=  0.05448900 RMS(Int)=  0.00226963
 Iteration  3 RMS(Cart)=  0.00235777 RMS(Int)=  0.00005455
 Iteration  4 RMS(Cart)=  0.00000316 RMS(Int)=  0.00005452
 Iteration  5 RMS(Cart)=  0.00000000 RMS(Int)=  0.00005452
 Variable       Old X    -DE/DX   Delta X   Delta X   Delta X     New X
                                 (Linear)    (Quad)   (Total)
    R1        2.72731   0.00020   0.00116   0.00059   0.00175   2.72906
    R2        3.37517  -0.00177   0.00508  -0.00327   0.00181   3.37698
    R3        3.00632   0.00163   0.00366   0.00919   0.01285   3.01917
    R4        2.72289  -0.00081   0.00018  -0.00086  -0.00068   2.72221
    R5        2.43178  -0.00093   0.00230  -0.00007   0.00225   2.43403
    R6        3.30721   0.00124   0.00320   0.00772   0.01094   3.31815
    R7        2.60642  -0.00167   0.00027  -0.00365  -0.00338   2.60303
    R8        2.67095   0.00192   0.00032   0.00538   0.00567   2.67662
    R9        2.64759   0.00008   0.00039   0.00079   0.00118   2.64877
   R10        2.64039   0.00001   0.00028   0.00062   0.00090   2.64129
   R11        3.29178  -0.00002   0.00030   0.00074   0.00103   3.29281
   R12        2.62406  -0.00056   0.00024  -0.00169  -0.00144   2.62262
   R13        2.05210  -0.00001   0.00001   0.00005   0.00006   2.05215
   R14        2.65532   0.00120   0.00014   0.00296   0.00310   2.65842
   R15        2.05395  -0.00004   0.00002  -0.00012  -0.00010   2.05384
   R16        2.61738  -0.00083   0.00044  -0.00207  -0.00162   2.61576
   R17        2.05330  -0.00005   0.00002  -0.00010  -0.00008   2.05322
   R18        2.05164   0.00000  -0.00002  -0.00004  -0.00006   2.05158
    A1        1.87517   0.00138  -0.00942  -0.00161  -0.01097   1.86420
    A2        1.88088   0.00001  -0.00260  -0.00506  -0.00752   1.87335
    A3        2.13582   0.00092   0.00168   0.00613   0.00783   2.14364
    A4        1.72582  -0.00224   0.01538  -0.00043   0.01492   1.74073
    A5        1.93677  -0.00136   0.00483   0.00367   0.00846   1.94523
    A6        1.86444   0.00059  -0.00674  -0.00441  -0.01132   1.85312
    A7        2.14478  -0.00172   0.00505  -0.00500  -0.00013   2.14464
    A8        2.06959   0.00023  -0.00532   0.00338  -0.00211   2.06748
    A9        2.06507   0.00153  -0.00097   0.00360   0.00249   2.06756
   A10        1.90896  -0.00039   0.00004  -0.00071  -0.00066   1.90830
   A11        2.01230  -0.00028   0.00028  -0.00099  -0.00074   2.01156
   A12        2.17675  -0.00008  -0.00052  -0.00071  -0.00122   2.17553
   A13        2.09412   0.00036   0.00024   0.00171   0.00196   2.09608
   A14        2.11749  -0.00051  -0.00030  -0.00255  -0.00285   2.11464
   A15        1.91353   0.00065   0.00065   0.00366   0.00425   1.91778
   A16        2.25187  -0.00013  -0.00045  -0.00079  -0.00123   2.25063
   A17        2.05490  -0.00001   0.00017   0.00069   0.00085   2.05575
   A18        2.11648  -0.00004  -0.00011  -0.00076  -0.00087   2.11561
   A19        2.11181   0.00005  -0.00005   0.00007   0.00001   2.11182
   A20        2.11903   0.00028   0.00008   0.00081   0.00089   2.11992
   A21        2.07950  -0.00017   0.00009   0.00002   0.00011   2.07961
   A22        2.08466  -0.00011  -0.00017  -0.00083  -0.00100   2.08365
   A23        2.11003   0.00024  -0.00006   0.00061   0.00055   2.11057
   A24        2.08398  -0.00008  -0.00031  -0.00108  -0.00139   2.08259
   A25        2.08918  -0.00015   0.00037   0.00047   0.00084   2.09002
   A26        2.07080  -0.00035  -0.00013  -0.00126  -0.00139   2.06941
   A27        2.08190   0.00013  -0.00056  -0.00094  -0.00150   2.08041
   A28        2.13047   0.00022   0.00068   0.00221   0.00289   2.13336
   A29        1.52416  -0.00147  -0.00022  -0.00466  -0.00488   1.51928
    D1        2.70170  -0.00015   0.17343   0.13404   0.30742   3.00912
    D2       -0.53448   0.00036   0.15168   0.15915   0.31077  -0.22371
    D3        0.74887   0.00032   0.17263   0.14019   0.31297   1.06184
    D4       -2.48731   0.00083   0.15088   0.16531   0.31632  -2.17099
    D5       -1.20483   0.00117   0.17158   0.14415   0.31565  -0.88918
    D6        1.84217   0.00168   0.14983   0.16926   0.31900   2.16117
    D7        3.02890   0.00152  -0.02457   0.04099   0.01629   3.04519
    D8       -0.01834   0.00108  -0.00278   0.01594   0.01318  -0.00516
    D9       -3.02032  -0.00148   0.02614  -0.04450  -0.01854  -3.03886
   D10        0.03105  -0.00117   0.00554  -0.02102  -0.01547   0.01559
[...]
    16  H    0.003988  -0.032339   0.368664  -0.036329   0.000016   0.000000
    17  H   -0.000133   0.003597  -0.041521   0.353275  -0.000079  -0.000000
              13         14         15         16         17
     1  O   -0.036567   0.000000  -0.000000   0.000000   0.000000
     2  S    0.463501  -0.000000  -0.000000  -0.000000   0.000009
     3  C   -0.061021  -0.000035   0.000000   0.000004  -0.000104
     4  N    0.001728  -0.000086  -0.000000  -0.000078  -0.000906
     5  C    0.000139   0.002254   0.000381   0.002790  -0.022665
     6  C   -0.000005  -0.034636   0.004621   0.000397   0.006506
     7  C    0.000000   0.367071  -0.037866   0.003988  -0.000133
     8  C   -0.000000  -0.033036   0.373499  -0.032339   0.003597
     9  C   -0.000000   0.003660  -0.034763   0.368664  -0.041521
    10  C   -0.000003   0.000314   0.003862  -0.036329   0.353275
    11  S    0.001357  -0.001723  -0.000115   0.000016  -0.000079
    12  F   -0.035582  -0.000000   0.000000   0.000000  -0.000000
    13  O    8.126506  -0.000000   0.000000   0.000000   0.000000
    14  H   -0.000000   0.476698  -0.004083  -0.000120   0.000013
    15  H    0.000000  -0.004083   0.501465  -0.004060  -0.000108
    16  H    0.000000  -0.000120  -0.004060   0.487344  -0.003822
    17  H    0.000000   0.000013  -0.000108  -0.003822   0.473191
 Mulliken charges:
               1
     1  O   -0.501996
     2  S    1.248866
     3  C   -0.281902
     4  N   -0.440694
     5  C    0.281320
     6  C   -0.197571
     7  C   -0.154904
     8  C   -0.171408
     9  C   -0.157462
    10  C   -0.120621
    11  S    0.390064
    12  F   -0.300806
    13  O   -0.460053
    14  H    0.223710
    15  H    0.197168
    16  H    0.213544
    17  H    0.232745
 Sum of Mulliken charges =  -0.00000
 Mulliken charges with hydrogens summed into heavy atoms:
               1
     1  O   -0.501996
     2  S    1.248866
     3  C   -0.281902
     4  N   -0.440694
     5  C    0.281320
     6  C   -0.197571
     7  C    0.068805
     8  C    0.025760
     9  C    0.056082
    10  C    0.112124
    11  S    0.390064
    12  F   -0.300806
    13  O   -0.460053
 Electronic spatial extent (au):  <R**2>=           3073.6413
 Charge=              0.0000 electrons
 Dipole moment (field-independent basis, Debye):
    X=            -10.0947    Y=             -0.8516    Z=              0.7941  Tot=             10.1616
 Quadrupole moment (field-independent basis, Debye-Ang):
   XX=            -76.5344   YY=            -82.3236   ZZ=            -88.9922
   XY=             -2.3544   XZ=              2.3641   YZ=              0.9065
 Traceless Quadrupole moment (field-independent basis, Debye-Ang):
   XX=              6.0823   YY=              0.2931   ZZ=             -6.3755
   XY=             -2.3544   XZ=              2.3641   YZ=              0.9065
 Octapole moment (field-independent basis, Debye-Ang**2):
  XXX=            -85.7555  YYY=              4.7465  ZZZ=              5.9108  XYY=            -25.8604
  XXY=             10.0659  XXZ=             11.7950  XZZ=             17.3085  YZZ=             -0.4786
  YYZ=              5.2751  XYZ=              2.8587
 Hexadecapole moment (field-independent basis, Debye-Ang**3):
 XXXX=          -2748.8460 YYYY=           -613.2600 ZZZZ=           -175.4050 XXXY=            -12.7079
 XXXZ=             39.5168 YYYX=             -3.3529 YYYZ=              5.0380 ZZZX=             16.6250
 ZZZY=              4.1739 XXYY=           -566.6506 XXZZ=           -577.7721 YYZZ=           -146.1329
 XXYZ=              7.5800 YYXZ=             13.4572 ZZXY=             -1.0932
 N-N= 1.013751628597D+03 E-N=-5.260443589566D+03  KE= 1.362723392753D+03
 Evaluate density.
 Using the total density.
 Monte-Carlo method of calculating molar volume:
 based on  0.001 e/bohr**3 density envelope.
 Number of points per bohr**3 =   20 CutOff= 1.00D-04
 Using the CI density.
 There are       429 points.  Will hold       429 in memory.
 LenV=   536733945 MDV=   536870912.
 Box volume = 9885.363 fraction occupied=0.163
 Integrated density= 8.3172859188656233D+01 error=-2.6827140811343767D+01
 Molar volume = 1612.996 bohr**3/mol (143.942 cm**3/mol)
 Recommended a0 for SCRF calculation =  4.74 angstrom (  8.95 bohr)
 ******************************Gaussian NBO Version 3.1******************************
             N A T U R A L   A T O M I C   O R B I T A L   A N D
          N A T U R A L   B O N D   O R B I T A L   A N A L Y S I S
 ******************************Gaussian NBO Version 3.1******************************
       /RESON  / : Allow strongly delocalized NBO set

 Analyzing the CI density

 Job title: WNKAAUWKENUQEO-UHFFFAOYSA-N_conf_0                              

 Storage needed:    134658 in NPA ( 536869297 available)


 NATURAL POPULATIONS:  Natural atomic orbital occupancies 
                                                          
   NAO  Atom  No  lang   Type(AO)    Occupancy
 --------------------------------------------
     1    O    1  S      Cor( 1S)     1.99988
     2    O    1  S      Val( 2S)     1.82713
     3    O    1  S      Ryd( 3S)     0.00120
     4    O    1  S      Ryd( 4S)     0.00002
     5    O    1  px     Val( 2p)     1.76985
     6    O    1  px     Ryd( 3p)     0.00075
     7    O    1  py     Val( 2p)     1.54051
     8    O    1  py     Ryd( 3p)     0.00073
     9    O    1  pz     Val( 2p)     1.75885
    10    O    1  pz     Ryd( 3p)     0.00050
    11    O    1  dxy    Ryd( 3d)     0.00591
    12    O    1  dxz    Ryd( 3d)     0.00116
    13    O    1  dyz    Ryd( 3d)     0.00516
    14    O    1  dx2y2  Ryd( 3d)     0.00602
    15    O    1  dz2    Ryd( 3d)     0.00226
 
    16    S    2  S      Cor( 1S)     2.00000
    17    S    2  S      Cor( 2S)     1.99898
    18    S    2  S      Val( 3S)     1.01913
    19    S    2  S      Ryd( 4S)     0.00371
    20    S    2  S      Ryd( 5S)     0.00026
    21    S    2  px     Cor( 2p)     1.99990
    22    S    2  px     Val( 3p)     0.88462
    23    S    2  px     Ryd( 4p)     0.01053
    24    S    2  py     Cor( 2p)     1.99989
    25    S    2  py     Val( 3p)     0.69347
    26    S    2  py     Ryd( 4p)     0.01549
    27    S    2  pz     Cor( 2p)     1.99987
    28    S    2  pz     Val( 3p)     0.78664
    29    S    2  pz     Ryd( 4p)     0.00877
    30    S    2  dxy    Ryd( 3d)     0.03284
    31    S    2  dxz    Ryd( 3d)     0.02183
    32    S    2  dyz    Ryd( 3d)     0.03816
    33    S    2  dx2y2  Ryd( 3d)     0.04495
    34    S    2  dz2    Ryd( 3d)     0.03633
 
    35    C    3  S      Cor( 1S)     1.99902
    36    C    3  S      Val( 2S)     1.03343
    37    C    3  S      Ryd( 3S)     0.00490
    38    C    3  S      Ryd( 4S)     0.00016
    39    C    3  px     Val( 2p)     1.08629
    40    C    3  px     Ryd( 3p)     0.00600
    41    C    3  py     Val( 2p)     0.97432
    42    C    3  py     Ryd( 3p)     0.01764
    43    C    3  pz     Val( 2p)     1.24813
    44    C    3  pz     Ryd( 3p)     0.00442
    45    C    3  dxy    Ryd( 3d)     0.00110
    46    C    3  dxz    Ryd( 3d)     0.00114
    47    C    3  dyz    Ryd( 3d)     0.00111
    48    C    3  dx2y2  Ryd( 3d)     0.00210
    49    C    3  dz2    Ryd( 3d)     0.00070
 
    50    N    4  S      Cor( 1S)     1.99926
    51    N    4  S      Val( 2S)     1.35562
    52    N    4  S      Ryd( 3S)     0.00118
    53    N    4  S      Ryd( 4S)     0.00004
    54    N    4  px     Val( 2p)     1.22481
    55    N    4  px     Ryd( 3p)     0.00520
    56    N    4  py     Val( 2p)     1.60294
    57    N    4  py     Ryd( 3p)     0.00488
    58    N    4  pz     Val( 2p)     1.24400
    59    N    4  pz     Ryd( 3p)     0.00500
    60    N    4  dxy    Ryd( 3d)     0.00344
    61    N    4  dxz    Ryd( 3d)     0.00070
    62    N    4  dyz    Ryd( 3d)     0.00350
    63    N    4  dx2y2  Ryd( 3d)     0.00320
    64    N    4  dz2    Ryd( 3d)     0.00249
 
    65    C    5  S      Cor( 1S)     1.99895
    66    C    5  S      Val( 2S)     0.84618
    67    C    5  S      Ryd( 3S)     0.00258
    68    C    5  S      Ryd( 4S)     0.00012
    69    C    5  px     Val( 2p)     0.96017
    70    C    5  px     Ryd( 3p)     0.00654
    71    C    5  py     Val( 2p)     1.05267
    72    C    5  py     Ryd( 3p)     0.00963
    73    C    5  pz     Val( 2p)     1.00501
    74    C    5  pz     Ryd( 3p)     0.00122
    75    C    5  dxy    Ryd( 3d)     0.00119
    76    C    5  dxz    Ryd( 3d)     0.00159
    77    C    5  dyz    Ryd( 3d)     0.00051
    78    C    5  dx2y2  Ryd( 3d)     0.00094
    79    C    5  dz2    Ryd( 3d)     0.00031
 
    80    C    6  S      Cor( 1S)     1.99882
    81    C    6  S      Val( 2S)     0.96578
    82    C    6  S      Ryd( 3S)     0.00252
    83    C    6  S      Ryd( 4S)     0.00009
    84    C    6  px     Val( 2p)     1.10359
    85    C    6  px     Ryd( 3p)     0.00525
    86    C    6  py     Val( 2p)     1.09133
    87    C    6  py     Ryd( 3p)     0.00552
    88    C    6  pz     Val( 2p)     1.08895
    89    C    6  pz     Ryd( 3p)     0.00114
    90    C    6  dxy    Ryd( 3d)     0.00116
    91    C    6  dxz    Ryd( 3d)     0.00105
    92    C    6  dyz    Ryd( 3d)     0.00062
    93    C    6  dx2y2  Ryd( 3d)     0.00083
    94    C    6  dz2    Ryd( 3d)     0.00063
 
    95    C    7  S      Cor( 1S)     1.99898
    96    C    7  S      Val( 2S)     0.97083
    97    C    7  S      Ryd( 3S)     0.00110
    98    C    7  S      Ryd( 4S)     0.00004
    99    C    7  px     Val( 2p)     1.05368
   100    C    7  px     Ryd( 3p)     0.00482
   101    C    7  py     Val( 2p)     1.21364
   102    C    7  py     Ryd( 3p)     0.00592
   103    C    7  pz     Val( 2p)     0.85725
   104    C    7  pz     Ryd( 3p)     0.00187
   105    C    7  dxy    Ryd( 3d)     0.00057
   106    C    7  dxz    Ryd( 3d)     0.00077
   107    C    7  dyz    Ryd( 3d)     0.00042
   108    C    7  dx2y2  Ryd( 3d)     0.00090
   109    C    7  dz2    Ryd( 3d)     0.00043
 
   110    C    8  S      Cor( 1S)     1.99916
   111    C    8  S      Val( 2S)     0.97213
   112    C    8  S      Ryd( 3S)     0.00064
   113    C    8  S      Ryd( 4S)     0.00003
   114    C    8  px     Val( 2p)     1.18784
   115    C    8  px     Ryd( 3p)     0.00549
   116    C    8  py     Val( 2p)     1.06996
   117    C    8  py     Ryd( 3p)     0.00474
   118    C    8  pz     Val( 2p)     1.05838
   119    C    8  pz     Ryd( 3p)     0.00168
   120    C    8  dxy    Ryd( 3d)     0.00070
   121    C    8  dxz    Ryd( 3d)     0.00046
   122    C    8  dyz    Ryd( 3d)     0.00041
   123    C    8  dx2y2  Ryd( 3d)     0.00067
   124    C    8  dz2    Ryd( 3d)     0.00044
 
   125    C    9  S      Cor( 1S)     1.99914
   126    C    9  S      Val( 2S)     0.98492
   127    C    9  S      Ryd( 3S)     0.00057
   128    C    9  S      Ryd( 4S)     0.00004
   129    C    9  px     Val( 2p)     1.14538
   130    C    9  px     Ryd( 3p)     0.00477
   131    C    9  py     Val( 2p)     1.11739
   132    C    9  py     Ryd( 3p)     0.00494
   133    C    9  pz     Val( 2p)     0.89563
   134    C    9  pz     Ryd( 3p)     0.00099
   135    C    9  dxy    Ryd( 3d)     0.00089
   136    C    9  dxz    Ryd( 3d)     0.00058
   137    C    9  dyz    Ryd( 3d)     0.00058
   138    C    9  dx2y2  Ryd( 3d)     0.00061
   139    C    9  dz2    Ryd( 3d)     0.00043
 
   140    C   10  S      Cor( 1S)     1.99902
   141    C   10  S      Val( 2S)     0.98175
   142    C   10  S      Ryd( 3S)     0.00099
   143    C   10  S      Ryd( 4S)     0.00006
   144    C   10  px     Val( 2p)     1.05068
   145    C   10  px     Ryd( 3p)     0.00430
   146    C   10  py     Val( 2p)     1.21057
   147    C   10  py     Ryd( 3p)     0.00522
   148    C   10  pz     Val( 2p)     0.86367
   149    C   10  pz     Ryd( 3p)     0.00186
   150    C   10  dxy    Ryd( 3d)     0.00071
   151    C   10  dxz    Ryd( 3d)     0.00069
   152    C   10  dyz    Ryd( 3d)     0.00046
   153    C   10  dx2y2  Ryd( 3d)     0.00077
   154    C   10  dz2    Ryd( 3d)     0.00040
 
   155    S   11  S      Cor( 1S)     2.00000
   156    S   11  S      Cor( 2S)     1.99932
   157    S   11  S      Val( 3S)     1.64277
   158    S   11  S      Ryd( 4S)     0.00687
   159    S   11  S      Ryd( 5S)     0.00002
   160    S   11  px     Cor( 2p)     1.99987
   161    S   11  px     Val( 3p)     0.91479
   162    S   11  px     Ryd( 4p)     0.00698
   163    S   11  py     Cor( 2p)     1.99983
   164    S   11  py     Val( 3p)     1.29403
   165    S   11  py     Ryd( 4p)     0.00280
   166    S   11  pz     Cor( 2p)     1.99987
   167    S   11  pz     Val( 3p)     1.57334
   168    S   11  pz     Ryd( 4p)     0.00985
   169    S   11  dxy    Ryd( 3d)     0.00738
   170    S   11  dxz    Ryd( 3d)     0.00387
   171    S   11  dyz    Ryd( 3d)     0.00475
   172    S   11  dx2y2  Ryd( 3d)     0.00484
   173    S   11  dz2    Ryd( 3d)     0.00288
 
   174    F   12  S      Cor( 1S)     1.99997
   175    F   12  S      Val( 2S)     1.92814
   176    F   12  S      Ryd( 3S)     0.00264
   177    F   12  S      Ryd( 4S)     0.00012
   178    F   12  px     Val( 2p)     1.94313
   179    F   12  px     Ryd( 3p)     0.00017
   180    F   12  py     Val( 2p)     1.93529
   181    F   12  py     Ryd( 3p)     0.00013
   182    F   12  pz     Val( 2p)     1.69109
   183    F   12  pz     Ryd( 3p)     0.00055
   184    F   12  dxy    Ryd( 3d)     0.00024
   185    F   12  dxz    Ryd( 3d)     0.00184
   186    F   12  dyz    Ryd( 3d)     0.00185
   187    F   12  dx2y2  Ryd( 3d)     0.00023
   188    F   12  dz2    Ryd( 3d)     0.00232
 
   189    O   13  S      Cor( 1S)     1.99988
   190    O   13  S      Val( 2S)     1.82642
   191    O   13  S      Ryd( 3S)     0.00131
   192    O   13  S      Ryd( 4S)     0.00002
   193    O   13  px     Val( 2p)     1.75549
   194    O   13  px     Ryd( 3p)     0.00091
   195    O   13  py     Val( 2p)     1.61502
   196    O   13  py     Ryd( 3p)     0.00059
   197    O   13  pz     Val( 2p)     1.66419
   198    O   13  pz     Ryd( 3p)     0.00067
   199    O   13  dxy    Ryd( 3d)     0.00426
   200    O   13  dxz    Ryd( 3d)     0.00269
   201    O   13  dyz    Ryd( 3d)     0.00580
   202    O   13  dx2y2  Ryd( 3d)     0.00421
   203    O   13  dz2    Ryd( 3d)     0.00391
 
   204    H   14  S      Val( 1S)     0.73256
   205    H   14  S      Ryd( 2S)     0.00082
 
   206    H   15  S      Val( 1S)     0.73652
   207    H   15  S      Ryd( 2S)     0.00065
 
   208    H   16  S      Val( 1S)     0.73732
   209    H   16  S      Ryd( 2S)     0.00065
 
   210    H   17  S      Val( 1S)     0.72442
   211    H   17  S      Ryd( 2S)     0.00103

 WARNING:  1 low occupancy (<1.9990e) core orbital  found on  S    2
           1 low occupancy (<1.9990e) core orbital  found on  C    5
           1 low occupancy (<1.9990e) core orbital  found on  C    6
           1 low occupancy (<1.9990e) core orbital  found on  C    7


 Summary of Natural Population Analysis:                  
                                                          
                                       Natural Population 
                Natural  -----------------------------------------------
    Atom  No    Charge         Core      Valence    Rydberg      Total
 -----------------------------------------------------------------------
      O    1   -0.91995      1.99988     6.89634    0.02372     8.91995
      S    2    2.40463      9.99865     3.38386    0.21286    13.59537
      C    3   -0.38048      1.99902     4.34217    0.03929     6.38048
      N    4   -0.45625      1.99926     5.42737    0.02962     7.45625
      C    5    0.11240      1.99895     3.86403    0.02463     5.88760
      C    6   -0.26728      1.99882     4.24964    0.01883     6.26728
      C    7   -0.11121      1.99898     4.09540    0.01683     6.11121
      C    8   -0.30273      1.99916     4.28831    0.01526     6.30273
      C    9   -0.15686      1.99914     4.14332    0.01440     6.15686
      C   10   -0.12116      1.99902     4.10667    0.01547     6.12116
      S   11    0.52594      9.99889     5.42492    0.05025    15.47406
      F   12   -0.50769      1.99997     7.49764    0.01008     9.50769
      O   13   -0.88538      1.99988     6.86113    0.02437     8.88538
      H   14    0.26661      0.00000     0.73256    0.00082     0.73339
      H   15    0.26283      0.00000     0.73652    0.00065     0.73717
      H   16    0.26203      0.00000     0.73732    0.00065     0.73797
      H   17    0.27455      0.00000     0.72442    0.00103     0.72545
 =======================================================================
   * Total *   -0.00000     41.98962    67.51163    0.49875   110.00000

                                 Natural Population      
 --------------------------------------------------------
   Core                      41.98962 ( 99.9753% of  42)
   Valence                   67.51163 ( 99.2818% of  68)
   Natural Minimal Basis    109.50125 ( 99.5466% of 110)
   Natural Rydberg Basis      0.49875 (  0.4534% of 110)
 --------------------------------------------------------

    Atom  No          Natural Electron Configuration
 ----------------------------------------------------------------------------
      O    1      [core]2S( 1.83)2p( 5.07)3d( 0.02)
      S    2      [core]3S( 1.02)3p( 2.36)3d( 0.17)4p( 0.03)
      C    3      [core]2S( 1.03)2p( 3.31)3p( 0.03)3d( 0.01)
      N    4      [core]2S( 1.36)2p( 4.07)3p( 0.02)3d( 0.01)
      C    5      [core]2S( 0.85)2p( 3.02)3p( 0.02)
      C    6      [core]2S( 0.97)2p( 3.28)3p( 0.01)
      C    7      [core]2S( 0.97)2p( 3.12)3p( 0.01)
      C    8      [core]2S( 0.97)2p( 3.32)3p( 0.01)
      C    9      [core]2S( 0.98)2p( 3.16)3p( 0.01)
      C   10      [core]2S( 0.98)2p( 3.12)3p( 0.01)
      S   11      [core]3S( 1.64)3p( 3.78)4S( 0.01)3d( 0.02)4p( 0.02)
      F   12      [core]2S( 1.93)2p( 5.57)3d( 0.01)
      O   13      [core]2S( 1.83)2p( 5.03)3d( 0.02)
      H   14            1S( 0.73)
      H   15            1S( 0.74)
      H   16            1S( 0.74)
      H   17            1S( 0.72)


 NBO analysis skipped by request.
 1\1\GINC-DELLA-R2C1N1\SP\RAPFD TD-FC\6-31G(d)\C7H4F1N1O2S2\SHIVAANI\26
 -Feb-2024\0\\# TD(NStates=10, Root=1) APFD/6-31G* volume pop=NPA densi
 ty=current Geom=AllCheck Guess=Read\\WNKAAUWKENUQEO-UHFFFAOYSA-N_conf_
 0\\0,1\O,0,4.0089642636,-0.7910731344,-1.4830790114\S,0,3.5729199423,0
 .1409539399,-0.4705155027\C,0,1.8056222774,-0.0125738764,-0.3244599129
 \N,0,1.110334886,0.7850373283,0.4075739696\C,0,-0.2177928388,0.4331466
 342,0.3316809747\C,0,-0.5006957048,-0.6786274948,-0.4996586087\C,0,-1.
 8095039293,-1.1387981883,-0.6706666771\C,0,-2.8224820788,-0.4730301016
 ,0.0044331375\C,0,-2.5510071431,0.6309538075,0.8334091921\C,0,-1.25741
 63112,1.091430779,1.0032985997\S,0,0.9746128194,-1.2825664358,-1.19945
 92671\F,0,3.9880477639,-0.4929005902,0.9399777207\O,0,3.9706195551,1.5
 224052029,-0.4344790869\H,0,-2.0280858361,-1.9896803843,-1.3090446017\
 H,0,-3.848174185,-0.8134358434,-0.1111672551\H,0,-3.3710477257,1.12683
 73408,1.3453841529\H,0,-1.0249157547,1.9419210163,1.6367721765\\Versio
 n=ES64L-G16RevA.03\State=1-A\HF=-1369.8531587\RMSD=8.529e-09\Dipole=-3
 .9362342,-0.5507962,0.431038\Quadrupole=4.6113143,-2.4793539,-2.131960
 4,-2.0296177,-0.4579774,2.7896591\PG=C01 [X(C7H4F1N1O2S2)]\\@


 IT IS WELL TO REMEMBER THAT MAN IS A PART OF NATURE AND THAT HIS WORKS,
 WHATEVER THEY MAY BE, ARE NO MORE "UNNATURAL" THAN 
 THE FLIGHT OF AN EAGLE OR THE PASSAGE OF A TORNADO.

                                    -- CHARLES MCCARRY IN "THE GREAT SOUTHWEST"
 Job cpu time:       0 days  0 hours 13 minutes 37.1 seconds.
 Elapsed time:       0 days  0 hours  6 minutes 56.3 seconds.
 File lengths (MBytes):  RWF=    398 Int=      0 D2E=      0 Chk=     28 Scr=      1
 Normal termination of Gaussian 16 at Mon Feb 26 13:00:51 2024.
