 Entering Gaussian System, Link 0=g16
 Input=ID-4001.com
 Output=ID-4001.log
 Initial command:
 /uufs/chpc.utah.edu/sys/installdir/gaussian16/C01/AVX/g16/l1.exe "/scratch/general/vast/u1318517/1930431-notchpeak.peaks/Gau-594747.inp" -scrdir="/scratch/general/vast/u1318517/1930431-notchpeak.peaks/"
 Entering Link 1 = /uufs/chpc.utah.edu/sys/installdir/gaussian16/C01/AVX/g16/l1.exe PID=    594763.
  
 Copyright (c) 1988-2019, Gaussian, Inc.  All Rights Reserved.
  
 This is part of the Gaussian(R) 16 program.  It is based on
 the Gaussian(R) 09 system (copyright 2009, Gaussian, Inc.),
 the Gaussian(R) 03 system (copyright 2003, Gaussian, Inc.),
 the Gaussian(R) 98 system (copyright 1998, Gaussian, Inc.),
 the Gaussian(R) 94 system (copyright 1995, Gaussian, Inc.),
 the Gaussian 92(TM) system (copyright 1992, Gaussian, Inc.),
 the Gaussian 90(TM) system (copyright 1990, Gaussian, Inc.),
 the Gaussian 88(TM) system (copyright 1988, Gaussian, Inc.),
 the Gaussian 86(TM) system (copyright 1986, Carnegie Mellon
 University), and the Gaussian 82(TM) system (copyright 1983,
 Carnegie Mellon University). Gaussian is a federally registered
 trademark of Gaussian, Inc.
  
 This software contains proprietary and confidential information,
 including trade secrets, belonging to Gaussian, Inc.
  
 This software is provided under written license and may be
 used, copied, transmitted, or stored only in accord with that
 written license.
  
 The following legend is applicable only to US Government
 contracts under FAR:
  
                    RESTRICTED RIGHTS LEGEND
  
 Use, reproduction and disclosure by the US Government is
 subject to restrictions as set forth in subparagraphs (a)
 and (c) of the Commercial Computer Software - Restricted
 Rights clause in FAR 52.227-19.
  
 Gaussian, Inc.
 340 Quinnipiac St., Bldg. 40, Wallingford CT 06492
  
  
 ---------------------------------------------------------------
 Warning -- This program may not be used in any manner that
 competes with the business of Gaussian, Inc. or will provide
 assistance to any competitor of Gaussian, Inc.  The licensee
 of this program is prohibited from giving any competitor of
 Gaussian, Inc. access to this program.  By using this program,
 the user acknowledges that Gaussian, Inc. is engaged in the
 business of creating and licensing software in the field of
 computational chemistry and represents and warrants to the
 licensee that it is not a competitor of Gaussian, Inc. and that
 it will not use this program in any manner prohibited above.
 ---------------------------------------------------------------
  

 Cite this work as:
 Gaussian 16, Revision C.01,
 M. J. Frisch, G. W. Trucks, H. B. Schlegel, G. E. Scuseria, 
 M. A. Robb, J. R. Cheeseman, G. Scalmani, V. Barone, 
 G. A. Petersson, H. Nakatsuji, X. Li, M. Caricato, A. V. Marenich, 
 J. Bloino, B. G. Janesko, R. Gomperts, B. Mennucci, H. P. Hratchian, 
 J. V. Ortiz, A. F. Izmaylov, J. L. Sonnenberg, D. Williams-Young, 
 F. Ding, F. Lipparini, F. Egidi, J. Goings, B. Peng, A. Petrone, 
 T. Henderson, D. Ranasinghe, V. G. Zakrzewski, J. Gao, N. Rega, 
 G. Zheng, W. Liang, M. Hada, M. Ehara, K. Toyota, R. Fukuda, 
 J. Hasegawa, M. Ishida, T. Nakajima, Y. Honda, O. Kitao, H. Nakai, 
 T. Vreven, K. Throssell, J. A. Montgomery, Jr., J. E. Peralta, 
 F. Ogliaro, M. J. Bearpark, J. J. Heyd, E. N. Brothers, K. N. Kudin, 
 V. N. Staroverov, T. A. Keith, R. Kobayashi, J. Normand, 
 K. Raghavachari, A. P. Rendell, J. C. Burant, S. S. Iyengar, 
 J. Tomasi, M. Cossi, J. M. Millam, M. Klene, C. Adamo, R. Cammi, 
 J. W. Ochterski, R. L. Martin, K. Morokuma, O. Farkas, 
 J. B. Foresman, and D. J. Fox, Gaussian, Inc., Wallingford CT, 2019.
 
 ******************************************
 Gaussian 16:  ES64L-G16RevC.01  3-Jul-2019
                 4-Oct-2024 
 ******************************************
 %nprocs=16
 Will use up to   16 processors via shared memory.
 %mem=16000MB
 %chk=ID-4001.chk
 -------------------------------
 #p apfd/6-31G* opt freq=noraman
 -------------------------------
 1/18=20,19=15,26=3,38=1/1,3;
 2/9=110,12=2,17=6,18=5,40=1/2;
 3/5=1,6=6,7=1,11=2,25=1,30=1,71=1,74=-44/1,2,3;
 4//1;
 5/5=2,38=5/2;
 6/7=2,8=2,9=2,10=2,28=1/1;
 7//1,2,3,16;
 1/18=20,19=15,26=3/3(2);
 2/9=110/2;
 99//99;
 2/9=110/2;
 3/5=1,6=6,7=1,11=2,25=1,30=1,71=1,74=-44/1,2,3;
 4/5=5,16=3,69=1/1;
 5/5=2,38=5/2;
 7//1,2,3,16;
 1/18=20,19=15,26=3/3(-5);
 2/9=110/2;
 6/7=2,8=2,9=2,10=2,19=2,28=1/1;
 99/9=1/99;
 Leave Link    1 at Fri Oct  4 16:09:36 2024, MaxMem=  2097152000 cpu:               1.2 elap:               0.1
 (Enter /uufs/chpc.utah.edu/sys/installdir/gaussian16/C01/AVX/g16/l101.exe)
 -------
 ID-4001
 -------
 Symbolic Z-matrix:
 Charge =  0 Multiplicity = 1
 F                     2.71487   1.45676   0.36197 
 S                     2.35744  -0.08396   0.22939 
 C                     3.09653  -0.92442   1.61007 
 C                     2.93477  -2.29202   1.75421 
 C                     3.50723  -2.8901    2.8766 
 C                     4.2136   -2.11846   3.8112 
 C                     4.7985   -2.70265   5.01311 
 C                     5.49885  -2.19472   6.09207 
 C                     5.77373  -3.28384   6.96078 
 C                     6.42224  -3.44413   8.1979 
 C                     6.48764  -4.72657   8.76142 
 C                     5.92356  -5.82807   8.112 
 C                     5.27509  -5.68818   6.87989 
 C                     5.22495  -4.40187   6.34757 
 O                     4.63724  -4.05261   5.17036 
 C                     4.31746  -0.75047   3.54635 
 N                     3.77786  -0.12473   2.47035 
 O                     0.91639  -0.16518   0.38115 
 O                     3.02462  -0.53815  -0.97633 
 H                     2.37804  -2.87659   1.02914 
 H                     3.3904   -3.96258   3.02208 
 H                     5.77571  -1.16258   6.25061 
 H                     6.86254  -2.59509   8.71206 
 H                     6.9845   -4.86435   9.71985 
 H                     5.9883   -6.812     8.5721 
 H                     4.83101  -6.53105   6.36487 
 H                     4.85341  -0.0844    4.21845 
 
 ITRead=  0  0  0  0  0  0  0  0  0  0  0  0  0  0  0  0  0  0  0  0
 ITRead=  0  0  0  0  0  0  0
 MicOpt= -1 -1 -1 -1 -1 -1 -1 -1 -1 -1 -1 -1 -1 -1 -1 -1 -1 -1 -1 -1
 MicOpt= -1 -1 -1 -1 -1 -1 -1
 NAtoms=     27 NQM=       27 NQMF=       0 NMMI=      0 NMMIF=      0
                NMic=       0 NMicF=      0.
                    Isotopes and Nuclear Properties:
 (Nuclear quadrupole moments (NQMom) in fm**2, nuclear magnetic moments (NMagM)
  in nuclear magnetons)

  Atom         1           2           3           4           5           6           7           8           9          10
 IAtWgt=          19          32          12          12          12          12          12          12          12          12
 AtmWgt=  18.9984032  31.9720718  12.0000000  12.0000000  12.0000000  12.0000000  12.0000000  12.0000000  12.0000000  12.0000000
 NucSpn=           1           0           0           0           0           0           0           0           0           0
 AtZEff=  -0.0000000  -0.0000000  -0.0000000  -0.0000000  -0.0000000  -0.0000000  -0.0000000  -0.0000000  -0.0000000  -0.0000000
 NQMom=    0.0000000   0.0000000   0.0000000   0.0000000   0.0000000   0.0000000   0.0000000   0.0000000   0.0000000   0.0000000
 NMagM=    2.6288670   0.0000000   0.0000000   0.0000000   0.0000000   0.0000000   0.0000000   0.0000000   0.0000000   0.0000000
 AtZNuc=   9.0000000  16.0000000   6.0000000   6.0000000   6.0000000   6.0000000   6.0000000   6.0000000   6.0000000   6.0000000

  Atom        11          12          13          14          15          16          17          18          19          20
 IAtWgt=          12          12          12          12          16          12          14          16          16           1
 AtmWgt=  12.0000000  12.0000000  12.0000000  12.0000000  15.9949146  12.0000000  14.0030740  15.9949146  15.9949146   1.0078250
 NucSpn=           0           0           0           0           0           0           2           0           0           1
 AtZEff=  -0.0000000  -0.0000000  -0.0000000  -0.0000000  -0.0000000  -0.0000000  -0.0000000  -0.0000000  -0.0000000  -0.0000000
 NQMom=    0.0000000   0.0000000   0.0000000   0.0000000   0.0000000   0.0000000   2.0440000   0.0000000   0.0000000   0.0000000
 NMagM=    0.0000000   0.0000000   0.0000000   0.0000000   0.0000000   0.0000000   0.4037610   0.0000000   0.0000000   2.7928460
 AtZNuc=   6.0000000   6.0000000   6.0000000   6.0000000   8.0000000   6.0000000   7.0000000   8.0000000   8.0000000   1.0000000

  Atom        21          22          23          24          25          26          27
 IAtWgt=           1           1           1           1           1           1           1
 AtmWgt=   1.0078250   1.0078250   1.0078250   1.0078250   1.0078250   1.0078250   1.0078250
 NucSpn=           1           1           1           1           1           1           1
 AtZEff=  -0.0000000  -0.0000000  -0.0000000  -0.0000000  -0.0000000  -0.0000000  -0.0000000
 NQMom=    0.0000000   0.0000000   0.0000000   0.0000000   0.0000000   0.0000000   0.0000000
 NMagM=    2.7928460   2.7928460   2.7928460   2.7928460   2.7928460   2.7928460   2.7928460
 AtZNuc=   1.0000000   1.0000000   1.0000000   1.0000000   1.0000000   1.0000000   1.0000000
 Leave Link  101 at Fri Oct  4 16:09:37 2024, MaxMem=  2097152000 cpu:               9.6 elap:               0.6
 (Enter /uufs/chpc.utah.edu/sys/installdir/gaussian16/C01/AVX/g16/l103.exe)

 GradGradGradGradGradGradGradGradGradGradGradGradGradGradGradGradGradGrad
 Berny optimization.
 Initialization pass.
                           ----------------------------
                           !    Initial Parameters    !
                           ! (Angstroms and Degrees)  !
 --------------------------                            --------------------------
 ! Name  Definition              Value          Derivative Info.                !
 --------------------------------------------------------------------------------
 ! R1    R(1,2)                  1.5872         estimate D2E/DX2                !
 ! R2    R(2,3)                  1.7773         estimate D2E/DX2                !
 ! R3    R(2,18)                 1.4513         estimate D2E/DX2                !
 ! R4    R(2,19)                 1.4509         estimate D2E/DX2                !
 ! R5    R(3,4)                  1.3847         estimate D2E/DX2                !
 ! R6    R(3,17)                 1.3579         estimate D2E/DX2                !
 ! R7    R(4,5)                  1.3947         estimate D2E/DX2                !
 ! R8    R(4,20)                 1.0851         estimate D2E/DX2                !
 ! R9    R(5,6)                  1.4028         estimate D2E/DX2                !
 ! R10   R(5,21)                 1.0886         estimate D2E/DX2                !
 ! R11   R(6,7)                  1.4588         estimate D2E/DX2                !
 ! R12   R(6,16)                 1.3973         estimate D2E/DX2                !
 ! R13   R(7,8)                  1.383          estimate D2E/DX2                !
 ! R14   R(7,15)                 1.3686         estimate D2E/DX2                !
 ! R15   R(8,9)                  1.42           estimate D2E/DX2                !
 ! R16   R(8,22)                 1.0803         estimate D2E/DX2                !
 ! R17   R(9,10)                 1.406          estimate D2E/DX2                !
 ! R18   R(9,14)                 1.3882         estimate D2E/DX2                !
 ! R19   R(10,11)                1.4023         estimate D2E/DX2                !
 ! R20   R(10,23)                1.0859         estimate D2E/DX2                !
 ! R21   R(11,12)                1.3976         estimate D2E/DX2                !
 ! R22   R(11,24)                1.0883         estimate D2E/DX2                !
 ! R23   R(12,13)                1.3993         estimate D2E/DX2                !
 ! R24   R(12,25)                1.0881         estimate D2E/DX2                !
 ! R25   R(13,14)                1.393          estimate D2E/DX2                !
 ! R26   R(13,26)                1.083          estimate D2E/DX2                !
 ! R27   R(14,15)                1.3613         estimate D2E/DX2                !
 ! R28   R(16,17)                1.3566         estimate D2E/DX2                !
 ! R29   R(16,27)                1.0875         estimate D2E/DX2                !
 ! A1    A(1,2,3)              107.4875         estimate D2E/DX2                !
 ! A2    A(1,2,18)             105.6166         estimate D2E/DX2                !
 ! A3    A(1,2,19)             105.6484         estimate D2E/DX2                !
 ! A4    A(3,2,18)             107.7709         estimate D2E/DX2                !
 ! A5    A(3,2,19)             107.8364         estimate D2E/DX2                !
 ! A6    A(18,2,19)            121.7332         estimate D2E/DX2                !
 ! A7    A(2,3,4)              119.9563         estimate D2E/DX2                !
 ! A8    A(2,3,17)             114.9815         estimate D2E/DX2                !
 ! A9    A(4,3,17)             125.0537         estimate D2E/DX2                !
 ! A10   A(3,4,5)              117.3462         estimate D2E/DX2                !
 ! A11   A(3,4,20)             121.4986         estimate D2E/DX2                !
 ! A12   A(5,4,20)             121.1531         estimate D2E/DX2                !
 ! A13   A(4,5,6)              120.4613         estimate D2E/DX2                !
 ! A14   A(4,5,21)             119.0765         estimate D2E/DX2                !
 ! A15   A(6,5,21)             120.4598         estimate D2E/DX2                !
 ! A16   A(5,6,7)              122.0421         estimate D2E/DX2                !
 ! A17   A(5,6,16)             116.7239         estimate D2E/DX2                !
 ! A18   A(7,6,16)             121.2286         estimate D2E/DX2                !
 ! A19   A(6,7,8)              134.3283         estimate D2E/DX2                !
 ! A20   A(6,7,15)             116.2592         estimate D2E/DX2                !
 ! A21   A(8,7,15)             109.408          estimate D2E/DX2                !
 ! A22   A(7,8,9)              107.0748         estimate D2E/DX2                !
 ! A23   A(7,8,22)             126.5242         estimate D2E/DX2                !
 ! A24   A(9,8,22)             126.398          estimate D2E/DX2                !
 ! A25   A(8,9,10)             135.6459         estimate D2E/DX2                !
 ! A26   A(8,9,14)             105.7208         estimate D2E/DX2                !
 ! A27   A(10,9,14)            118.633          estimate D2E/DX2                !
 ! A28   A(9,10,11)            118.644          estimate D2E/DX2                !
 ! A29   A(9,10,23)            120.9662         estimate D2E/DX2                !
 ! A30   A(11,10,23)           120.3896         estimate D2E/DX2                !
 ! A31   A(10,11,12)           121.0122         estimate D2E/DX2                !
 ! A32   A(10,11,24)           119.4036         estimate D2E/DX2                !
 ! A33   A(12,11,24)           119.5841         estimate D2E/DX2                !
 ! A34   A(11,12,13)           121.1572         estimate D2E/DX2                !
 ! A35   A(11,12,25)           119.4843         estimate D2E/DX2                !
 ! A36   A(13,12,25)           119.3585         estimate D2E/DX2                !
 ! A37   A(12,13,14)           116.4526         estimate D2E/DX2                !
 ! A38   A(12,13,26)           122.0685         estimate D2E/DX2                !
 ! A39   A(14,13,26)           121.4785         estimate D2E/DX2                !
 ! A40   A(9,14,13)            124.1008         estimate D2E/DX2                !
 ! A41   A(9,14,15)            110.244          estimate D2E/DX2                !
 ! A42   A(13,14,15)           125.6548         estimate D2E/DX2                !
 ! A43   A(7,15,14)            107.5507         estimate D2E/DX2                !
 ! A44   A(6,16,17)            124.9144         estimate D2E/DX2                !
 ! A45   A(6,16,27)            121.2749         estimate D2E/DX2                !
 ! A46   A(17,16,27)           113.8098         estimate D2E/DX2                !
 ! A47   A(3,17,16)            115.4947         estimate D2E/DX2                !
 ! D1    D(1,2,3,4)            179.4911         estimate D2E/DX2                !
 ! D2    D(1,2,3,17)             0.503          estimate D2E/DX2                !
 ! D3    D(18,2,3,4)            66.0777         estimate D2E/DX2                !
 ! D4    D(18,2,3,17)         -112.9105         estimate D2E/DX2                !
 ! D5    D(19,2,3,4)           -67.027          estimate D2E/DX2                !
 ! D6    D(19,2,3,17)          113.9848         estimate D2E/DX2                !
 ! D7    D(2,3,4,5)           -178.3033         estimate D2E/DX2                !
 ! D8    D(2,3,4,20)             1.1767         estimate D2E/DX2                !
 ! D9    D(17,3,4,5)             0.5763         estimate D2E/DX2                !
 ! D10   D(17,3,4,20)         -179.9438         estimate D2E/DX2                !
 ! D11   D(2,3,17,16)          178.3868         estimate D2E/DX2                !
 ! D12   D(4,3,17,16)           -0.5422         estimate D2E/DX2                !
 ! D13   D(3,4,5,6)              0.0694         estimate D2E/DX2                !
 ! D14   D(3,4,5,21)           179.5078         estimate D2E/DX2                !
 ! D15   D(20,4,5,6)          -179.4125         estimate D2E/DX2                !
 ! D16   D(20,4,5,21)            0.026          estimate D2E/DX2                !
 ! D17   D(4,5,6,7)            178.5004         estimate D2E/DX2                !
 ! D18   D(4,5,6,16)            -0.6593         estimate D2E/DX2                !
 ! D19   D(21,5,6,7)            -0.9303         estimate D2E/DX2                !
 ! D20   D(21,5,6,16)          179.91           estimate D2E/DX2                !
 ! D21   D(5,6,7,8)           -178.2013         estimate D2E/DX2                !
 ! D22   D(5,6,7,15)             0.9336         estimate D2E/DX2                !
 ! D23   D(16,6,7,8)             0.9209         estimate D2E/DX2                !
 ! D24   D(16,6,7,15)         -179.9442         estimate D2E/DX2                !
 ! D25   D(5,6,16,17)            0.7196         estimate D2E/DX2                !
 ! D26   D(5,6,16,27)         -179.6514         estimate D2E/DX2                !
 ! D27   D(7,6,16,17)         -178.4474         estimate D2E/DX2                !
 ! D28   D(7,6,16,27)            1.1816         estimate D2E/DX2                !
 ! D29   D(6,7,8,9)            178.7427         estimate D2E/DX2                !
 ! D30   D(6,7,8,22)            -0.6457         estimate D2E/DX2                !
 ! D31   D(15,7,8,9)            -0.4347         estimate D2E/DX2                !
 ! D32   D(15,7,8,22)         -179.8231         estimate D2E/DX2                !
 ! D33   D(6,7,15,14)         -178.9888         estimate D2E/DX2                !
 ! D34   D(8,7,15,14)            0.355          estimate D2E/DX2                !
 ! D35   D(7,8,9,10)          -179.4364         estimate D2E/DX2                !
 ! D36   D(7,8,9,14)             0.3413         estimate D2E/DX2                !
 ! D37   D(22,8,9,10)           -0.047          estimate D2E/DX2                !
 ! D38   D(22,8,9,14)          179.7307         estimate D2E/DX2                !
 ! D39   D(8,9,10,11)          179.7399         estimate D2E/DX2                !
 ! D40   D(8,9,10,23)           -0.0812         estimate D2E/DX2                !
 ! D41   D(14,9,10,11)          -0.0163         estimate D2E/DX2                !
 ! D42   D(14,9,10,23)        -179.8374         estimate D2E/DX2                !
 ! D43   D(8,9,14,13)         -179.9171         estimate D2E/DX2                !
 ! D44   D(8,9,14,15)           -0.1315         estimate D2E/DX2                !
 ! D45   D(10,9,14,13)          -0.0942         estimate D2E/DX2                !
 ! D46   D(10,9,14,15)         179.6915         estimate D2E/DX2                !
 ! D47   D(9,10,11,12)           0.0758         estimate D2E/DX2                !
 ! D48   D(9,10,11,24)        -179.8447         estimate D2E/DX2                !
 ! D49   D(23,10,11,12)        179.8979         estimate D2E/DX2                !
 ! D50   D(23,10,11,24)         -0.0226         estimate D2E/DX2                !
 ! D51   D(10,11,12,13)         -0.0299         estimate D2E/DX2                !
 ! D52   D(10,11,12,25)       -179.9674         estimate D2E/DX2                !
 ! D53   D(24,11,12,13)        179.8904         estimate D2E/DX2                !
 ! D54   D(24,11,12,25)         -0.0471         estimate D2E/DX2                !
 ! D55   D(11,12,13,14)         -0.0731         estimate D2E/DX2                !
 ! D56   D(11,12,13,26)       -179.8628         estimate D2E/DX2                !
 ! D57   D(25,12,13,14)        179.8646         estimate D2E/DX2                !
 ! D58   D(25,12,13,26)          0.0748         estimate D2E/DX2                !
 ! D59   D(12,13,14,9)           0.1376         estimate D2E/DX2                !
 ! D60   D(12,13,14,15)       -179.6149         estimate D2E/DX2                !
 ! D61   D(26,13,14,9)         179.9287         estimate D2E/DX2                !
 ! D62   D(26,13,14,15)          0.1762         estimate D2E/DX2                !
 ! D63   D(9,14,15,7)           -0.1327         estimate D2E/DX2                !
 ! D64   D(13,14,15,7)         179.6489         estimate D2E/DX2                !
 ! D65   D(6,16,17,3)           -0.1389         estimate D2E/DX2                !
 ! D66   D(27,16,17,3)        -179.7924         estimate D2E/DX2                !
 --------------------------------------------------------------------------------
 Trust Radius=3.00D-01 FncErr=1.00D-07 GrdErr=1.00D-06 EigMax=2.50D+02 EigMin=1.00D-04
 Number of steps in this run=    152 maximum allowed number of steps=    162.
 GradGradGradGradGradGradGradGradGradGradGradGradGradGradGradGradGradGrad

 Leave Link  103 at Fri Oct  4 16:09:37 2024, MaxMem=  2097152000 cpu:               0.2 elap:               0.0
 (Enter /uufs/chpc.utah.edu/sys/installdir/gaussian16/C01/AVX/g16/l202.exe)
                          Input orientation:                          
 ---------------------------------------------------------------------
 Center     Atomic      Atomic             Coordinates (Angstroms)
 Number     Number       Type             X           Y           Z
 ---------------------------------------------------------------------
      1          9           0        2.714870    1.456760    0.361970
      2         16           0        2.357440   -0.083960    0.229390
      3          6           0        3.096530   -0.924420    1.610070
      4          6           0        2.934770   -2.292020    1.754210
      5          6           0        3.507230   -2.890100    2.876600
      6          6           0        4.213600   -2.118460    3.811200
      7          6           0        4.798500   -2.702650    5.013110
      8          6           0        5.498850   -2.194720    6.092070
      9          6           0        5.773730   -3.283840    6.960780
     10          6           0        6.422240   -3.444130    8.197900
     11          6           0        6.487640   -4.726570    8.761420
     12          6           0        5.923560   -5.828070    8.112000
     13          6           0        5.275090   -5.688180    6.879890
     14          6           0        5.224950   -4.401870    6.347570
     15          8           0        4.637240   -4.052610    5.170360
     16          6           0        4.317460   -0.750470    3.546350
     17          7           0        3.777860   -0.124730    2.470350
     18          8           0        0.916390   -0.165180    0.381150
     19          8           0        3.024620   -0.538150   -0.976330
     20          1           0        2.378040   -2.876590    1.029140
     21          1           0        3.390400   -3.962580    3.022080
     22          1           0        5.775710   -1.162580    6.250610
     23          1           0        6.862540   -2.595090    8.712060
     24          1           0        6.984500   -4.864350    9.719850
     25          1           0        5.988300   -6.812000    8.572100
     26          1           0        4.831010   -6.531050    6.364870
     27          1           0        4.853410   -0.084400    4.218450
 ---------------------------------------------------------------------
                    Distance matrix (angstroms):
                    1          2          3          4          5
     1  F    0.000000
     2  S    1.587184   0.000000
     3  C    2.715407   1.777331   0.000000
     4  C    4.005002   2.744798   1.384656   0.000000
     5  C    5.083935   4.025439   2.374167   1.394693   0.000000
     6  C    5.188986   4.518173   2.741997   2.428320   1.402806
     7  C    6.578397   5.974972   4.199939   3.776577   2.503436
     8  C    7.342881   6.978165   5.241481   5.039941   3.845693
     9  C    8.681832   8.198895   6.431513   6.012634   4.687492
    10  C    9.958168   9.555652   7.797999   7.416936   6.092657
    11  C   11.091354  10.554995   8.780534   8.225017   6.847377
    12  C   11.109789  10.384968   8.620497   7.864986   6.471455
    13  C   10.004408   9.173283   7.430379   6.579027   5.194315
    14  C    8.743652   8.018671   6.250339   5.549356   4.157360
    15  O    7.561037   6.735047   4.983475   4.203351   2.808859
    16  C    4.192903   3.910005   2.295672   2.738608   2.383916
    17  N    2.841888   2.653518   1.357865   2.433270   2.808122
    18  O    2.421898   1.451294   2.615282   3.237684   4.512750
    19  O    2.422118   1.450923   2.616073   3.246534   4.539785
    20  H    4.397328   2.904962   2.159786   1.085079   2.165262
    21  H    6.074683   4.889767   3.363116   2.146128   1.088589
    22  H    7.134828   7.007359   5.363706   5.437296   4.417496
    23  H   10.165857   9.927607   8.210495   7.995680   6.737784
    24  H   12.072949  11.590110   9.818752   9.298850   7.925853
    25  H   12.103469  11.315939   9.565343   8.731431   7.346818
    26  H   10.213617   9.237296   7.553201   6.543950   5.213150
    27  H    4.671292   4.705578   3.255136   3.824558   3.388911
                    6          7          8          9         10
     6  C    0.000000
     7  C    1.458758   0.000000
     8  C    2.619170   1.382981   0.000000
     9  C    3.702968   2.254390   1.419999   0.000000
    10  C    5.087104   3.650919   2.616906   1.405960   0.000000
    11  C    6.039716   4.582496   3.809646   2.415252   1.402314
    12  C    5.931446   4.542811   4.178723   2.796581   2.437054
    13  C    4.825611   3.553223   3.588174   2.456835   2.844093
    14  C    3.559489   2.202270   2.238708   1.388228   2.403017
    15  O    2.401608   1.368621   2.245813   2.255708   3.566857
    16  C    1.397258   2.488733   3.156300   4.494109   5.772592
    17  N    2.441866   3.762048   4.512596   5.841869   7.128534
    18  O    5.143164   6.554738   7.598196   8.752789  10.107793
    19  O    5.179913   6.610983   7.669962   8.837089  10.205638
    20  H    3.418172   4.664858   5.986457   6.846964   8.250380
    21  H    2.168213   2.744881   4.122588   4.653419   6.020794
    22  H    3.050347   2.204124   1.080324   2.236982   3.068454
    23  H    5.591287   4.237223   2.980653   2.174136   1.085861
    24  H    7.080250   5.621827   4.742875   3.402417   2.156268
    25  H    6.917011   5.564961   5.263970   3.884624   3.416267
    26  H    5.135502   4.060167   4.395929   3.433395   3.926969
    27  H    2.170855   2.736738   2.894908   4.313210   5.439213
                   11         12         13         14         15
    11  C    0.000000
    12  C    1.397582   0.000000
    13  C    2.436211   1.399349   0.000000
    14  C    2.743445   2.373882   1.393008   0.000000
    15  O    4.095597   3.668804   2.450395   1.361326   0.000000
    16  C    6.907677   7.014752   6.034113   4.690746   3.693751
    17  N    8.252115   8.304236   7.255185   5.951540   4.843225
    18  O   11.048712  10.812313   9.577861   8.491843   7.203705
    19  O   11.151643  10.908018   9.659587   8.567922   7.261802
    20  H    8.949826   8.452742   7.108390   6.222305   4.861760
    21  H    6.566323   5.983664   4.627359   3.823275   2.485523
    22  H    4.417356   5.025279   4.596484   3.287208   3.288667
    23  H    2.164762   3.419637   3.929892   3.396611   4.429443
    24  H    1.088320   2.153957   3.415575   3.831733   5.183282
    25  H    2.152719   1.088118   2.152955   3.367486   4.583823
    26  H    3.426955   2.177225   1.082997   2.165386   2.758091
    27  H    6.697688   7.021018   6.217992   4.828223   4.086509
                   16         17         18         19         20
    16  C    0.000000
    17  N    1.356648   0.000000
    18  O    4.682770   3.543219   0.000000
    19  O    4.708625   3.552167   2.535053   0.000000
    20  H    3.823360   3.407245   3.147706   3.147742   0.000000
    21  H    3.384073   3.896617   5.245520   5.277101   2.485167
    22  H    3.099895   4.399875   7.684944   7.758033   6.461094
    23  H    6.046868   7.387616  10.519754  10.621936   8.900407
    24  H    7.883477   9.235897  12.087823  12.198562  10.034894
    25  H    8.049349   9.318636  11.704535  11.803267   9.242168
    26  H    6.451581   7.570822   9.573581   9.647337   6.916802
    27  H    1.087479   2.052873   5.498320   5.525948   4.908715
                   21         22         23         24         25
    21  H    0.000000
    22  H    4.894191   0.000000
    23  H    6.804532   3.048282   0.000000
    24  H    7.654467   5.215352   2.485972   0.000000
    25  H    6.758032   6.111502   4.308853   2.470442   0.000000
    26  H    4.454957   5.452154   5.012803   4.321030   2.508011
    27  H    4.314160   2.478464   5.525640   7.593080   8.093383
                   26         27
    26  H    0.000000
    27  H    6.794624   0.000000
 Stoichiometry    C13H8FNO3S
 Framework group  C1[X(C13H8FNO3S)]
 Deg. of freedom    75
 Full point group                 C1      NOp   1
 Largest Abelian subgroup         C1      NOp   1
 Largest concise Abelian subgroup C1      NOp   1
                         Standard orientation:                         
 ---------------------------------------------------------------------
 Center     Atomic      Atomic             Coordinates (Angstroms)
 Number     Number       Type             X           Y           Z
 ---------------------------------------------------------------------
      1          9           0       -4.917327    1.372585    0.038719
      2         16           0       -4.399715   -0.127821    0.035476
      3          6           0       -2.624343   -0.080176   -0.033007
      4          6           0       -1.900642   -1.260648   -0.037009
      5          6           0       -0.509750   -1.159376   -0.055220
      6          6           0        0.111629    0.098244   -0.067272
      7          6           0        1.562970    0.244555   -0.054042
      8          6           0        2.425083    1.325672   -0.029866
      9          6           0        3.745858    0.805109    0.001234
     10          6           0        5.040816    1.350960    0.044280
     11          6           0        6.137831    0.477830    0.070463
     12          6           0        5.955910   -0.907748    0.052753
     13          6           0        4.674915   -1.469276    0.008993
     14          6           0        3.606269   -0.576000   -0.013934
     15          8           0        2.288530   -0.915903   -0.049139
     16          6           0       -0.728939    1.214364   -0.074432
     17          7           0       -2.084592    1.165580   -0.056610
     18          8           0       -4.778728   -0.674645    1.325276
     19          8           0       -4.877119   -0.703826   -1.207698
     20          1           0       -2.392872   -2.227471   -0.018033
     21          1           0        0.087072   -2.069766   -0.050627
     22          1           0        2.147207    2.369634   -0.024590
     23          1           0        5.193795    2.425875    0.060054
     24          1           0        7.145663    0.887006    0.106414
     25          1           0        6.824866   -1.562309    0.074355
     26          1           0        4.516822   -2.540605   -0.003030
     27          1           0       -0.326144    2.224383   -0.089523
 ---------------------------------------------------------------------
 Rotational constants (GHZ):           1.5862191           0.1209208           0.1150128
 Leave Link  202 at Fri Oct  4 16:09:37 2024, MaxMem=  2097152000 cpu:               0.1 elap:               0.0
 (Enter /uufs/chpc.utah.edu/sys/installdir/gaussian16/C01/AVX/g16/l301.exe)
 Standard basis: 6-31G(d) (6D, 7F)
 Ernie: Thresh=  0.10000D-02 Tol=  0.10000D-05 Strict=F.
 There are   305 symmetry adapted cartesian basis functions of A   symmetry.
 There are   305 symmetry adapted basis functions of A   symmetry.
   305 basis functions,   588 primitive gaussians,   305 cartesian basis functions
    71 alpha electrons       71 beta electrons
       nuclear repulsion energy      1442.0092253518 Hartrees.
 IExCor= 3731 DFT=T Ex+Corr=APFD ExCW=0 ScaHFX=  0.229450
 ScaDFX=  1.000000  1.000000  1.000000  1.000000 ScalE2=  1.000000  1.000000
 IRadAn=      5 IRanWt=     -1 IRanGd=            0 ICorTp=0 IEmpDi=211
 NAtoms=   27 NActive=   27 NUniq=   27 SFac= 1.00D+00 NAtFMM=   60 NAOKFM=F Big=F
 Integral buffers will be    131072 words long.
 Raffenetti 2 integral format.
 Two-electron integral symmetry is turned on.
 R6APFD:  NTU= -4 IXU= 1 FactS= 1.050
 R6Disp:  Petersson-Frisch Dispersion energy=       -0.0226984540 Hartrees.
 Nuclear repulsion after empirical dispersion term =     1441.9865268978 Hartrees.
 Leave Link  301 at Fri Oct  4 16:09:37 2024, MaxMem=  2097152000 cpu:               1.0 elap:               0.1
 (Enter /uufs/chpc.utah.edu/sys/installdir/gaussian16/C01/AVX/g16/l302.exe)
 NPDir=0 NMtPBC=     1 NCelOv=     1 NCel=       1 NClECP=     1 NCelD=      1
         NCelK=      1 NCelE2=     1 NClLst=     1 CellRange=     0.0.
 One-electron integrals computed using PRISM.
 One-electron integral symmetry used in STVInt
 NBasis=   305 RedAO= T EigKep=  3.70D-04  NBF=   305
 NBsUse=   305 1.00D-06 EigRej= -1.00D+00 NBFU=   305
 Precomputing XC quadrature grid using
 IXCGrd= 4 IRadAn=           5 IRanWt=          -1 IRanGd=           0 AccXCQ= 0.00D+00.
 Generated NRdTot=       0 NPtTot=           0 NUsed=           0 NTot=          32
 NSgBfM=   299   299   299   299   299 MxSgAt=    27 MxSgA2=    27.
 Leave Link  302 at Fri Oct  4 16:09:37 2024, MaxMem=  2097152000 cpu:               5.1 elap:               0.3
 (Enter /uufs/chpc.utah.edu/sys/installdir/gaussian16/C01/AVX/g16/l303.exe)
 DipDrv:  MaxL=1.
 Leave Link  303 at Fri Oct  4 16:09:37 2024, MaxMem=  2097152000 cpu:               0.9 elap:               0.1
 (Enter /uufs/chpc.utah.edu/sys/installdir/gaussian16/C01/AVX/g16/l401.exe)
 ExpMin= 1.17D-01 ExpMax= 2.19D+04 ExpMxC= 3.30D+03 IAcc=3 IRadAn=         5 AccDes= 0.00D+00
 Harris functional with IExCor= 3731 and IRadAn=       5 diagonalized for initial guess.
 HarFok:  IExCor= 3731 AccDes= 0.00D+00 IRadAn=         5 IDoV= 1 UseB2=F ITyADJ=14
 ICtDFT=  3500011 ScaDFX=  1.000000  1.000000  1.000000  1.000000
 FoFCou: FMM=F IPFlag=           0 FMFlag=      100000 FMFlg1=           0
         NFxFlg=           0 DoJE=T BraDBF=F KetDBF=T FulRan=T
         wScrn=  0.000000 ICntrl=       500 IOpCl=  0 I1Cent=   200000004 NGrid=           0
         NMat0=    1 NMatS0=      1 NMatT0=    0 NMatD0=    1 NMtDS0=    0 NMtDT0=    0
 Petite list used in FoFCou.
 Harris En= -1246.85567414441    
 JPrj=0 DoOrth=F DoCkMO=F.
 Leave Link  401 at Fri Oct  4 16:09:39 2024, MaxMem=  2097152000 cpu:              22.1 elap:               1.4
 (Enter /uufs/chpc.utah.edu/sys/installdir/gaussian16/C01/AVX/g16/l502.exe)
 Integral symmetry usage will be decided dynamically.
 Closed shell SCF:
 Using DIIS extrapolation, IDIIS=  1040.
 NGot=  2097152000 LenX=  2096957218 LenY=  2096863752
 Requested convergence on RMS density matrix=1.00D-08 within 128 cycles.
 Requested convergence on MAX density matrix=1.00D-06.
 Requested convergence on             energy=1.00D-06.
 No special actions if energy rises.
 Fock matrices will be formed incrementally for  20 cycles.
 Integral accuracy reduced to 1.0D-05 until final iterations.

 Cycle   1  Pass 0  IDiag  1:
 FoFJK:  IHMeth= 1 ICntrl=       0 DoSepK=F KAlg= 0 I1Cent=           0 FoldK=F
 IRaf= 720000000 NMat=       1 IRICut=       1 DoRegI=T DoRafI=F ISym2E= 0 IDoP0=0 IntGTp=1.
 FoFCou: FMM=F IPFlag=           0 FMFlag=      100000 FMFlg1=           0
         NFxFlg=           0 DoJE=F BraDBF=F KetDBF=F FulRan=T
         wScrn=  0.000000 ICntrl=         0 IOpCl=  0 I1Cent=           0 NGrid=           0
         NMat0=    1 NMatS0=      1 NMatT0=    0 NMatD0=    1 NMtDS0=    0 NMtDT0=    0
 Symmetry not used in FoFCou.
 E= -1277.30228158063    
 DIIS: error= 8.53D-02 at cycle   1 NSaved=   1.
 NSaved= 1 IEnMin= 1 EnMin= -1277.30228158063     IErMin= 1 ErrMin= 8.53D-02
 ErrMax= 8.53D-02  0.00D+00 EMaxC= 1.00D-01 BMatC= 1.29D+00 BMatP= 1.29D+00
 IDIUse=3 WtCom= 1.47D-01 WtEn= 8.53D-01
 Coeff-Com:  0.100D+01
 Coeff-En:   0.100D+01
 Coeff:      0.100D+01
 Gap=     0.139 Goal=   None    Shift=    0.000
 GapD=    0.139 DampG=1.000 DampE=0.500 DampFc=0.5000 IDamp=-1.
 Damping current iteration by 5.00D-01
 RMSDP=6.38D-03 MaxDP=5.90D-01              OVMax= 3.20D-01

 Cycle   2  Pass 0  IDiag  1:
 RMSU=  3.19D-03    CP:  9.99D-01
 E= -1277.43268470197     Delta-E=       -0.130403121342 Rises=F Damp=T
 DIIS: error= 3.19D-02 at cycle   2 NSaved=   2.
 NSaved= 2 IEnMin= 2 EnMin= -1277.43268470197     IErMin= 2 ErrMin= 3.19D-02
 ErrMax= 3.19D-02  0.00D+00 EMaxC= 1.00D-01 BMatC= 2.55D-01 BMatP= 1.29D+00
 IDIUse=3 WtCom= 6.81D-01 WtEn= 3.19D-01
 Coeff-Com: -0.391D-01 0.104D+01
 Coeff-En:   0.331D+00 0.669D+00
 Coeff:      0.791D-01 0.921D+00
 Gap=     0.273 Goal=   None    Shift=    0.000
 RMSDP=2.41D-03 MaxDP=7.70D-02 DE=-1.30D-01 OVMax= 3.84D-01

 Cycle   3  Pass 0  IDiag  1:
 RMSU=  2.21D-03    CP:  1.01D+00  7.04D-01
 E= -1277.63284612176     Delta-E=       -0.200161419784 Rises=F Damp=F
 DIIS: error= 2.49D-02 at cycle   3 NSaved=   3.
 NSaved= 3 IEnMin= 3 EnMin= -1277.63284612176     IErMin= 3 ErrMin= 2.49D-02
 ErrMax= 2.49D-02  0.00D+00 EMaxC= 1.00D-01 BMatC= 1.84D-01 BMatP= 2.55D-01
 IDIUse=3 WtCom= 7.51D-01 WtEn= 2.49D-01
 Coeff-Com: -0.192D+00 0.572D+00 0.620D+00
 Coeff-En:   0.000D+00 0.138D+00 0.862D+00
 Coeff:     -0.144D+00 0.464D+00 0.680D+00
 Gap=     0.147 Goal=   None    Shift=    0.000
 RMSDP=2.01D-03 MaxDP=7.39D-02 DE=-2.00D-01 OVMax= 1.54D-01

 Cycle   4  Pass 0  IDiag  1:
 RMSU=  1.02D-03    CP:  1.00D+00  1.06D+00  4.16D-01
 E= -1277.74474867034     Delta-E=       -0.111902548583 Rises=F Damp=F
 DIIS: error= 1.53D-02 at cycle   4 NSaved=   4.
 NSaved= 4 IEnMin= 4 EnMin= -1277.74474867034     IErMin= 4 ErrMin= 1.53D-02
 ErrMax= 1.53D-02  0.00D+00 EMaxC= 1.00D-01 BMatC= 5.20D-02 BMatP= 1.84D-01
 IDIUse=3 WtCom= 8.47D-01 WtEn= 1.53D-01
 Coeff-Com: -0.638D-01 0.157D+00 0.407D+00 0.499D+00
 Coeff-En:   0.000D+00 0.000D+00 0.263D+00 0.737D+00
 Coeff:     -0.540D-01 0.133D+00 0.385D+00 0.536D+00
 Gap=     0.155 Goal=   None    Shift=    0.000
 RMSDP=8.07D-04 MaxDP=3.27D-02 DE=-1.12D-01 OVMax= 5.67D-02

 Cycle   5  Pass 0  IDiag  1:
 RMSU=  2.75D-04    CP:  1.00D+00  9.61D-01  6.34D-01  5.22D-01
 E= -1277.78708615412     Delta-E=       -0.042337483782 Rises=F Damp=F
 DIIS: error= 2.16D-03 at cycle   5 NSaved=   5.
 NSaved= 5 IEnMin= 5 EnMin= -1277.78708615412     IErMin= 5 ErrMin= 2.16D-03
 ErrMax= 2.16D-03  0.00D+00 EMaxC= 1.00D-01 BMatC= 1.76D-03 BMatP= 5.20D-02
 IDIUse=3 WtCom= 9.78D-01 WtEn= 2.16D-02
 Coeff-Com: -0.202D-01 0.459D-01 0.177D+00 0.303D+00 0.494D+00
 Coeff-En:   0.000D+00 0.000D+00 0.000D+00 0.000D+00 0.100D+01
 Coeff:     -0.198D-01 0.449D-01 0.174D+00 0.296D+00 0.505D+00
 Gap=     0.152 Goal=   None    Shift=    0.000
 RMSDP=1.78D-04 MaxDP=6.89D-03 DE=-4.23D-02 OVMax= 1.36D-02

 Cycle   6  Pass 0  IDiag  1:
 RMSU=  1.01D-04    CP:  1.00D+00  9.72D-01  6.22D-01  5.84D-01  5.44D-01
 E= -1277.78857729803     Delta-E=       -0.001491143904 Rises=F Damp=F
 DIIS: error= 9.46D-04 at cycle   6 NSaved=   6.
 NSaved= 6 IEnMin= 6 EnMin= -1277.78857729803     IErMin= 6 ErrMin= 9.46D-04
 ErrMax= 9.46D-04  0.00D+00 EMaxC= 1.00D-01 BMatC= 1.54D-04 BMatP= 1.76D-03
 IDIUse=3 WtCom= 9.91D-01 WtEn= 9.46D-03
 Coeff-Com:  0.324D-03-0.200D-02 0.211D-01 0.681D-01 0.285D+00 0.627D+00
 Coeff-En:   0.000D+00 0.000D+00 0.000D+00 0.000D+00 0.599D-01 0.940D+00
 Coeff:      0.321D-03-0.198D-02 0.209D-01 0.675D-01 0.283D+00 0.630D+00
 Gap=     0.153 Goal=   None    Shift=    0.000
 RMSDP=6.13D-05 MaxDP=2.13D-03 DE=-1.49D-03 OVMax= 5.41D-03

 Cycle   7  Pass 0  IDiag  1:
 RMSU=  3.54D-05    CP:  1.00D+00  9.70D-01  6.23D-01  5.94D-01  6.34D-01
                    CP:  5.82D-01
 E= -1277.78871538498     Delta-E=       -0.000138086956 Rises=F Damp=F
 DIIS: error= 4.34D-04 at cycle   7 NSaved=   7.
 NSaved= 7 IEnMin= 7 EnMin= -1277.78871538498     IErMin= 7 ErrMin= 4.34D-04
 ErrMax= 4.34D-04  0.00D+00 EMaxC= 1.00D-01 BMatC= 2.65D-05 BMatP= 1.54D-04
 IDIUse=3 WtCom= 9.96D-01 WtEn= 4.34D-03
 Coeff-Com:  0.162D-02-0.418D-02 0.248D-03 0.190D-01 0.136D+00 0.398D+00
 Coeff-Com:  0.450D+00
 Coeff-En:   0.000D+00 0.000D+00 0.000D+00 0.000D+00 0.000D+00 0.133D+00
 Coeff-En:   0.867D+00
 Coeff:      0.162D-02-0.416D-02 0.247D-03 0.189D-01 0.135D+00 0.397D+00
 Coeff:      0.451D+00
 Gap=     0.153 Goal=   None    Shift=    0.000
 RMSDP=2.17D-05 MaxDP=8.60D-04 DE=-1.38D-04 OVMax= 2.20D-03

 Cycle   8  Pass 0  IDiag  1:
 RMSU=  9.65D-06    CP:  1.00D+00  9.69D-01  6.23D-01  5.92D-01  6.35D-01
                    CP:  6.74D-01  5.23D-01
 E= -1277.78874446767     Delta-E=       -0.000029082685 Rises=F Damp=F
 DIIS: error= 7.57D-05 at cycle   8 NSaved=   8.
 NSaved= 8 IEnMin= 8 EnMin= -1277.78874446767     IErMin= 8 ErrMin= 7.57D-05
 ErrMax= 7.57D-05  0.00D+00 EMaxC= 1.00D-01 BMatC= 1.54D-06 BMatP= 2.65D-05
 IDIUse=1 WtCom= 1.00D+00 WtEn= 0.00D+00
 Coeff-Com:  0.932D-03-0.220D-02-0.251D-02 0.283D-02 0.471D-01 0.164D+00
 Coeff-Com:  0.248D+00 0.542D+00
 Coeff:      0.932D-03-0.220D-02-0.251D-02 0.283D-02 0.471D-01 0.164D+00
 Coeff:      0.248D+00 0.542D+00
 Gap=     0.153 Goal=   None    Shift=    0.000
 RMSDP=5.58D-06 MaxDP=2.08D-04 DE=-2.91D-05 OVMax= 5.36D-04

 Initial convergence to 1.0D-05 achieved.  Increase integral accuracy.
 Cycle   9  Pass 1  IDiag  1:
 E= -1277.78877659704     Delta-E=       -0.000032129366 Rises=F Damp=F
 DIIS: error= 6.53D-05 at cycle   1 NSaved=   1.
 NSaved= 1 IEnMin= 1 EnMin= -1277.78877659704     IErMin= 1 ErrMin= 6.53D-05
 ErrMax= 6.53D-05  0.00D+00 EMaxC= 1.00D-01 BMatC= 7.85D-07 BMatP= 7.85D-07
 IDIUse=1 WtCom= 1.00D+00 WtEn= 0.00D+00
 Coeff-Com:  0.100D+01
 Coeff:      0.100D+01
 Gap=     0.153 Goal=   None    Shift=    0.000
 RMSDP=5.58D-06 MaxDP=2.08D-04 DE=-3.21D-05 OVMax= 4.44D-04

 Cycle  10  Pass 1  IDiag  1:
 RMSU=  5.22D-05    CP:  1.00D+00
 E= -1277.78877649185     Delta-E=        0.000000105186 Rises=F Damp=F
 DIIS: error= 5.12D-05 at cycle   2 NSaved=   2.
 NSaved= 2 IEnMin= 1 EnMin= -1277.78877659704     IErMin= 2 ErrMin= 5.12D-05
 ErrMax= 5.12D-05  0.00D+00 EMaxC= 1.00D-01 BMatC= 8.10D-07 BMatP= 7.85D-07
 IDIUse=1 WtCom= 1.00D+00 WtEn= 0.00D+00
 Coeff-Com:  0.505D+00 0.495D+00
 Coeff:      0.505D+00 0.495D+00
 Gap=     0.153 Goal=   None    Shift=    0.000
 RMSDP=5.01D-06 MaxDP=1.94D-04 DE= 1.05D-07 OVMax= 4.44D-04

 Cycle  11  Pass 1  IDiag  1:
 RMSU=  5.01D-06    CP:  1.00D+00  9.98D-01
 E= -1277.78877708221     Delta-E=       -0.000000590363 Rises=F Damp=F
 DIIS: error= 2.67D-05 at cycle   3 NSaved=   3.
 NSaved= 3 IEnMin= 3 EnMin= -1277.78877708221     IErMin= 3 ErrMin= 2.67D-05
 ErrMax= 2.67D-05  0.00D+00 EMaxC= 1.00D-01 BMatC= 2.57D-07 BMatP= 7.85D-07
 IDIUse=1 WtCom= 1.00D+00 WtEn= 0.00D+00
 Coeff-Com:  0.259D-01 0.356D+00 0.618D+00
 Coeff:      0.259D-01 0.356D+00 0.618D+00
 Gap=     0.153 Goal=   None    Shift=    0.000
 RMSDP=2.01D-06 MaxDP=6.40D-05 DE=-5.90D-07 OVMax= 1.94D-04

 Cycle  12  Pass 1  IDiag  1:
 RMSU=  7.98D-07    CP:  1.00D+00  1.01D+00  6.46D-01
 E= -1277.78877733785     Delta-E=       -0.000000255641 Rises=F Damp=F
 DIIS: error= 7.86D-06 at cycle   4 NSaved=   4.
 NSaved= 4 IEnMin= 4 EnMin= -1277.78877733785     IErMin= 4 ErrMin= 7.86D-06
 ErrMax= 7.86D-06  0.00D+00 EMaxC= 1.00D-01 BMatC= 1.57D-08 BMatP= 2.57D-07
 IDIUse=1 WtCom= 1.00D+00 WtEn= 0.00D+00
 Coeff-Com: -0.219D-02 0.203D+00 0.382D+00 0.417D+00
 Coeff:     -0.219D-02 0.203D+00 0.382D+00 0.417D+00
 Gap=     0.153 Goal=   None    Shift=    0.000
 RMSDP=4.65D-07 MaxDP=1.74D-05 DE=-2.56D-07 OVMax= 4.23D-05

 Cycle  13  Pass 1  IDiag  1:
 RMSU=  1.64D-07    CP:  1.00D+00  1.01D+00  6.57D-01  4.60D-01
 E= -1277.78877735321     Delta-E=       -0.000000015360 Rises=F Damp=F
 DIIS: error= 1.23D-06 at cycle   5 NSaved=   5.
 NSaved= 5 IEnMin= 5 EnMin= -1277.78877735321     IErMin= 5 ErrMin= 1.23D-06
 ErrMax= 1.23D-06  0.00D+00 EMaxC= 1.00D-01 BMatC= 4.48D-10 BMatP= 1.57D-08
 IDIUse=1 WtCom= 1.00D+00 WtEn= 0.00D+00
 Coeff-Com: -0.229D-02 0.105D+00 0.198D+00 0.243D+00 0.457D+00
 Coeff:     -0.229D-02 0.105D+00 0.198D+00 0.243D+00 0.457D+00
 Gap=     0.153 Goal=   None    Shift=    0.000
 RMSDP=8.41D-08 MaxDP=2.71D-06 DE=-1.54D-08 OVMax= 7.85D-06

 Cycle  14  Pass 1  IDiag  1:
 RMSU=  5.18D-08    CP:  1.00D+00  1.01D+00  6.56D-01  4.69D-01  6.03D-01
 E= -1277.78877735365     Delta-E=       -0.000000000439 Rises=F Damp=F
 DIIS: error= 3.08D-07 at cycle   6 NSaved=   6.
 NSaved= 6 IEnMin= 6 EnMin= -1277.78877735365     IErMin= 6 ErrMin= 3.08D-07
 ErrMax= 3.08D-07  0.00D+00 EMaxC= 1.00D-01 BMatC= 1.58D-11 BMatP= 4.48D-10
 IDIUse=1 WtCom= 1.00D+00 WtEn= 0.00D+00
 Coeff-Com: -0.104D-02 0.425D-01 0.798D-01 0.102D+00 0.228D+00 0.548D+00
 Coeff:     -0.104D-02 0.425D-01 0.798D-01 0.102D+00 0.228D+00 0.548D+00
 Gap=     0.153 Goal=   None    Shift=    0.000
 RMSDP=1.95D-08 MaxDP=5.97D-07 DE=-4.39D-10 OVMax= 1.73D-06

 Cycle  15  Pass 1  IDiag  1:
 RMSU=  1.58D-08    CP:  1.00D+00  1.01D+00  6.56D-01  4.72D-01  6.46D-01
                    CP:  8.46D-01
 E= -1277.78877735367     Delta-E=       -0.000000000020 Rises=F Damp=F
 DIIS: error= 1.02D-07 at cycle   7 NSaved=   7.
 NSaved= 7 IEnMin= 7 EnMin= -1277.78877735367     IErMin= 7 ErrMin= 1.02D-07
 ErrMax= 1.02D-07  0.00D+00 EMaxC= 1.00D-01 BMatC= 2.18D-12 BMatP= 1.58D-11
 IDIUse=1 WtCom= 1.00D+00 WtEn= 0.00D+00
 Coeff-Com: -0.134D-03 0.364D-02 0.627D-02 0.108D-01 0.358D-01 0.277D+00
 Coeff-Com:  0.667D+00
 Coeff:     -0.134D-03 0.364D-02 0.627D-02 0.108D-01 0.358D-01 0.277D+00
 Coeff:      0.667D+00
 Gap=     0.153 Goal=   None    Shift=    0.000
 RMSDP=8.20D-09 MaxDP=2.54D-07 DE=-2.00D-11 OVMax= 6.81D-07

 SCF Done:  E(RAPFD) =  -1277.78877735     A.U. after   15 cycles
            NFock= 15  Conv=0.82D-08     -V/T= 2.0071
 KE= 1.268724338985D+03 PE=-5.881531056415D+03 EE= 1.893031413178D+03
 Leave Link  502 at Fri Oct  4 16:10:03 2024, MaxMem=  2097152000 cpu:             380.0 elap:              23.9
 (Enter /uufs/chpc.utah.edu/sys/installdir/gaussian16/C01/AVX/g16/l601.exe)
 Copying SCF densities to generalized density rwf, IOpCl= 0 IROHF=0.

 **********************************************************************

            Population analysis using the SCF Density.

 **********************************************************************

 Orbital symmetries:
       Occupied  (A) (A) (A) (A) (A) (A) (A) (A) (A) (A) (A) (A)
                 (A) (A) (A) (A) (A) (A) (A) (A) (A) (A) (A) (A)
                 (A) (A) (A) (A) (A) (A) (A) (A) (A) (A) (A) (A)
                 (A) (A) (A) (A) (A) (A) (A) (A) (A) (A) (A) (A)
                 (A) (A) (A) (A) (A) (A) (A) (A) (A) (A) (A) (A)
                 (A) (A) (A) (A) (A) (A) (A) (A) (A) (A) (A)
       Virtual   (A) (A) (A) (A) (A) (A) (A) (A) (A) (A) (A) (A)
                 (A) (A) (A) (A) (A) (A) (A) (A) (A) (A) (A) (A)
                 (A) (A) (A) (A) (A) (A) (A) (A) (A) (A) (A) (A)
                 (A) (A) (A) (A) (A) (A) (A) (A) (A) (A) (A) (A)
                 (A) (A) (A) (A) (A) (A) (A) (A) (A) (A) (A) (A)
                 (A) (A) (A) (A) (A) (A) (A) (A) (A) (A) (A) (A)
                 (A) (A) (A) (A) (A) (A) (A) (A) (A) (A) (A) (A)
                 (A) (A) (A) (A) (A) (A) (A) (A) (A) (A) (A) (A)
                 (A) (A) (A) (A) (A) (A) (A) (A) (A) (A) (A) (A)
                 (A) (A) (A) (A) (A) (A) (A) (A) (A) (A) (A) (A)
                 (A) (A) (A) (A) (A) (A) (A) (A) (A) (A) (A) (A)
                 (A) (A) (A) (A) (A) (A) (A) (A) (A) (A) (A) (A)
                 (A) (A) (A) (A) (A) (A) (A) (A) (A) (A) (A) (A)
                 (A) (A) (A) (A) (A) (A) (A) (A) (A) (A) (A) (A)
                 (A) (A) (A) (A) (A) (A) (A) (A) (A) (A) (A) (A)
                 (A) (A) (A) (A) (A) (A) (A) (A) (A) (A) (A) (A)
                 (A) (A) (A) (A) (A) (A) (A) (A) (A) (A) (A) (A)
                 (A) (A) (A) (A) (A) (A) (A) (A) (A) (A) (A) (A)
                 (A) (A) (A) (A) (A) (A) (A) (A) (A) (A) (A) (A)
                 (A) (A) (A) (A) (A) (A)
 The electronic state is 1-A.
 Alpha  occ. eigenvalues --  -89.23556 -24.79532 -19.28025 -19.21039 -19.21016
 Alpha  occ. eigenvalues --  -14.41627 -10.31319 -10.30681 -10.28817 -10.28802
 Alpha  occ. eigenvalues --  -10.27787 -10.27098 -10.27019 -10.24390 -10.23999
 Alpha  occ. eigenvalues --  -10.23834 -10.23823 -10.23600 -10.23183  -8.21406
 Alpha  occ. eigenvalues --   -6.16372  -6.15969  -6.15906  -1.28729  -1.15872
 Alpha  occ. eigenvalues --   -1.13096  -1.04743  -0.99959  -0.89511  -0.87425
 Alpha  occ. eigenvalues --   -0.84637  -0.82960  -0.78576  -0.76735  -0.72873
 Alpha  occ. eigenvalues --   -0.69288  -0.67232  -0.64776  -0.63315  -0.61455
 Alpha  occ. eigenvalues --   -0.59990  -0.56101  -0.54991  -0.53256  -0.52646
 Alpha  occ. eigenvalues --   -0.51576  -0.51041  -0.49769  -0.49711  -0.47991
 Alpha  occ. eigenvalues --   -0.46554  -0.45696  -0.45654  -0.44532  -0.44225
 Alpha  occ. eigenvalues --   -0.44178  -0.43136  -0.41208  -0.39013  -0.38668
 Alpha  occ. eigenvalues --   -0.38379  -0.36740  -0.36103  -0.35016  -0.33904
 Alpha  occ. eigenvalues --   -0.32775  -0.32396  -0.30872  -0.30619  -0.26361
 Alpha  occ. eigenvalues --   -0.23940
 Alpha virt. eigenvalues --   -0.08620  -0.05785  -0.01984   0.00056   0.00513
 Alpha virt. eigenvalues --    0.03913   0.06621   0.08754   0.09599   0.10373
 Alpha virt. eigenvalues --    0.11926   0.12374   0.12842   0.14583   0.16141
 Alpha virt. eigenvalues --    0.16451   0.16619   0.17797   0.17818   0.18769
 Alpha virt. eigenvalues --    0.19444   0.22366   0.24703   0.25889   0.26478
 Alpha virt. eigenvalues --    0.28990   0.29856   0.31154   0.32356   0.32982
 Alpha virt. eigenvalues --    0.33973   0.35230   0.37804   0.40153   0.41396
 Alpha virt. eigenvalues --    0.42472   0.44283   0.47363   0.47907   0.48980
 Alpha virt. eigenvalues --    0.50453   0.51529   0.52257   0.54738   0.54795
 Alpha virt. eigenvalues --    0.55346   0.55839   0.56651   0.57012   0.57463
 Alpha virt. eigenvalues --    0.58402   0.58760   0.59547   0.60513   0.60649
 Alpha virt. eigenvalues --    0.61276   0.61974   0.62053   0.62395   0.63785
 Alpha virt. eigenvalues --    0.64549   0.65095   0.68149   0.70971   0.71427
 Alpha virt. eigenvalues --    0.76525   0.77052   0.79004   0.79984   0.80300
 Alpha virt. eigenvalues --    0.80460   0.81567   0.82341   0.82587   0.83236
 Alpha virt. eigenvalues --    0.83764   0.84901   0.85773   0.86137   0.86673
 Alpha virt. eigenvalues --    0.87566   0.88148   0.89714   0.90264   0.91576
 Alpha virt. eigenvalues --    0.93027   0.95257   0.95657   0.97277   0.98643
 Alpha virt. eigenvalues --    0.99239   0.99786   1.00838   1.02887   1.03048
 Alpha virt. eigenvalues --    1.05181   1.06426   1.09321   1.09678   1.10965
 Alpha virt. eigenvalues --    1.12399   1.16651   1.17398   1.18409   1.19698
 Alpha virt. eigenvalues --    1.20193   1.21803   1.23685   1.24279   1.26699
 Alpha virt. eigenvalues --    1.27322   1.28219   1.31406   1.31610   1.32709
 Alpha virt. eigenvalues --    1.32968   1.34871   1.38706   1.39203   1.40493
 Alpha virt. eigenvalues --    1.42425   1.42795   1.43666   1.43747   1.45593
 Alpha virt. eigenvalues --    1.46383   1.47390   1.47478   1.48297   1.49553
 Alpha virt. eigenvalues --    1.51523   1.57058   1.58230   1.62231   1.68653
 Alpha virt. eigenvalues --    1.70203   1.73904   1.74714   1.76749   1.76822
 Alpha virt. eigenvalues --    1.77861   1.78509   1.79115   1.79140   1.80600
 Alpha virt. eigenvalues --    1.81804   1.82841   1.83875   1.85328   1.85499
 Alpha virt. eigenvalues --    1.86102   1.87832   1.88084   1.89065   1.90128
 Alpha virt. eigenvalues --    1.91391   1.95071   1.96260   1.98058   1.99568
 Alpha virt. eigenvalues --    2.01473   2.03735   2.04610   2.06794   2.07951
 Alpha virt. eigenvalues --    2.09095   2.10887   2.11149   2.12436   2.15418
 Alpha virt. eigenvalues --    2.16587   2.16961   2.18982   2.20241   2.21350
 Alpha virt. eigenvalues --    2.22549   2.23718   2.25218   2.26396   2.27816
 Alpha virt. eigenvalues --    2.29756   2.30165   2.30943   2.34429   2.39249
 Alpha virt. eigenvalues --    2.40243   2.46729   2.50915   2.51620   2.54352
 Alpha virt. eigenvalues --    2.57004   2.59552   2.61509   2.61571   2.63499
 Alpha virt. eigenvalues --    2.64514   2.66432   2.66834   2.68148   2.72697
 Alpha virt. eigenvalues --    2.75468   2.77988   2.80722   2.81574   2.82785
 Alpha virt. eigenvalues --    2.83279   2.85448   2.93006   2.94859   3.01652
 Alpha virt. eigenvalues --    3.10300   3.20941   3.22444   3.35248   3.46777
 Alpha virt. eigenvalues --    3.77599   3.88934   3.95693   4.02210   4.06021
 Alpha virt. eigenvalues --    4.08746   4.09581   4.12232   4.14381   4.19355
 Alpha virt. eigenvalues --    4.24272   4.27188   4.33677   4.38126   4.45512
 Alpha virt. eigenvalues --    4.57315   4.59163   4.74346   4.81666
          Condensed to atoms (all electrons):
               1          2          3          4          5          6
     1  F    9.145021   0.219067  -0.030153   0.000828  -0.000014  -0.000005
     2  S    0.219067  13.464408   0.195392  -0.022342   0.001494   0.000107
     3  C   -0.030153   0.195392   5.313115   0.454125  -0.039914  -0.034268
     4  C    0.000828  -0.022342   0.454125   4.977277   0.488731  -0.010050
     5  C   -0.000014   0.001494  -0.039914   0.488731   5.033002   0.477375
     6  C   -0.000005   0.000107  -0.034268  -0.010050   0.477375   4.957823
     7  C   -0.000000  -0.000012   0.000997   0.006558  -0.047777   0.343398
     8  C   -0.000000   0.000000   0.000027  -0.000164   0.009558  -0.067120
     9  C    0.000000  -0.000000  -0.000000   0.000003  -0.000272   0.007093
    10  C    0.000000  -0.000000  -0.000000  -0.000000  -0.000002  -0.000147
    11  C   -0.000000  -0.000000   0.000000   0.000000  -0.000000   0.000003
    12  C   -0.000000   0.000000   0.000000  -0.000000   0.000000   0.000006
    13  C   -0.000000  -0.000000   0.000000  -0.000000   0.000003  -0.000490
    14  C   -0.000000  -0.000000   0.000000   0.000007   0.000386   0.002784
    15  O    0.000000   0.000000  -0.000007   0.000290  -0.002460  -0.044548
    16  C    0.000185   0.000177  -0.073255  -0.037470  -0.071860   0.453010
    17  N    0.003969  -0.021704   0.348630  -0.022255  -0.043909  -0.002259
    18  O   -0.035824   0.455159  -0.056571   0.000078   0.000075   0.000002
    19  O   -0.035768   0.454719  -0.056167   0.000002   0.000083   0.000000
    20  H    0.000009   0.001967  -0.035691   0.362193  -0.029581   0.003317
    21  H    0.000000  -0.000027   0.005282  -0.041744   0.370527  -0.037161
    22  H   -0.000000  -0.000000   0.000001   0.000001  -0.000078  -0.002742
    23  H    0.000000   0.000000  -0.000000   0.000000   0.000000   0.000001
    24  H    0.000000   0.000000   0.000000  -0.000000   0.000000  -0.000000
    25  H    0.000000  -0.000000  -0.000000  -0.000000  -0.000000  -0.000000
    26  H    0.000000   0.000000   0.000000   0.000000  -0.000000   0.000003
    27  H    0.000004  -0.000173   0.006518   0.000213   0.003703  -0.061051
               7          8          9         10         11         12
     1  F   -0.000000  -0.000000   0.000000   0.000000  -0.000000  -0.000000
     2  S   -0.000012   0.000000  -0.000000  -0.000000  -0.000000   0.000000
     3  C    0.000997   0.000027  -0.000000  -0.000000   0.000000   0.000000
     4  C    0.006558  -0.000164   0.000003  -0.000000   0.000000  -0.000000
     5  C   -0.047777   0.009558  -0.000272  -0.000002  -0.000000   0.000000
     6  C    0.343398  -0.067120   0.007093  -0.000147   0.000003   0.000006
     7  C    4.741175   0.489311  -0.007515   0.007238  -0.000210   0.000165
     8  C    0.489311   5.319935   0.389955  -0.077262   0.006941  -0.000145
     9  C   -0.007515   0.389955   4.723735   0.500436  -0.014632  -0.030334
    10  C    0.007238  -0.077262   0.500436   5.047653   0.522415  -0.035857
    11  C   -0.000210   0.006941  -0.014632   0.522415   4.907505   0.531596
    12  C    0.000165  -0.000145  -0.030334  -0.035857   0.531596   4.899227
    13  C   -0.002159   0.017405  -0.067868  -0.046772  -0.036082   0.526705
    14  C   -0.079934  -0.066156   0.512748  -0.034236  -0.040474  -0.013034
    15  O    0.322588  -0.115069  -0.036823   0.007472  -0.000124   0.002830
    16  C   -0.027237  -0.013118   0.000221   0.000002  -0.000000  -0.000000
    17  N    0.005972   0.000063  -0.000003  -0.000000   0.000000   0.000000
    18  O   -0.000000   0.000000  -0.000000  -0.000000  -0.000000  -0.000000
    19  O   -0.000000   0.000000  -0.000000  -0.000000   0.000000  -0.000000
    20  H   -0.000034   0.000001  -0.000000   0.000000  -0.000000   0.000000
    21  H   -0.010390   0.000237   0.000036  -0.000001   0.000000  -0.000000
    22  H   -0.030992   0.355473  -0.023114  -0.002191  -0.000036   0.000006
    23  H   -0.000105  -0.005512  -0.036496   0.364003  -0.039356   0.003987
    24  H    0.000003  -0.000148   0.002191  -0.034364   0.367422  -0.036777
    25  H   -0.000001   0.000013   0.000712   0.003937  -0.036168   0.368223
    26  H    0.000103  -0.000309   0.004574   0.000327   0.003688  -0.035839
    27  H   -0.003157   0.004020   0.000046  -0.000001  -0.000000   0.000000
              13         14         15         16         17         18
     1  F   -0.000000  -0.000000   0.000000   0.000185   0.003969  -0.035824
     2  S   -0.000000  -0.000000   0.000000   0.000177  -0.021704   0.455159
     3  C    0.000000   0.000000  -0.000007  -0.073255   0.348630  -0.056571
     4  C   -0.000000   0.000007   0.000290  -0.037470  -0.022255   0.000078
     5  C    0.000003   0.000386  -0.002460  -0.071860  -0.043909   0.000075
     6  C   -0.000490   0.002784  -0.044548   0.453010  -0.002259   0.000002
     7  C   -0.002159  -0.079934   0.322588  -0.027237   0.005972  -0.000000
     8  C    0.017405  -0.066156  -0.115069  -0.013118   0.000063   0.000000
     9  C   -0.067868   0.512748  -0.036823   0.000221  -0.000003  -0.000000
    10  C   -0.046772  -0.034236   0.007472   0.000002  -0.000000  -0.000000
    11  C   -0.036082  -0.040474  -0.000124  -0.000000   0.000000  -0.000000
    12  C    0.526705  -0.013034   0.002830  -0.000000   0.000000  -0.000000
    13  C    5.034841   0.517714  -0.052662   0.000003   0.000000   0.000000
    14  C    0.517714   4.617208   0.257676   0.000078   0.000002   0.000000
    15  O   -0.052662   0.257676   8.186407   0.002266  -0.000025  -0.000000
    16  C    0.000003   0.000078   0.002266   4.935657   0.432760  -0.000132
    17  N    0.000000   0.000002  -0.000025   0.432760   6.788054   0.000005
    18  O    0.000000   0.000000  -0.000000  -0.000132   0.000005   8.162009
    19  O    0.000000   0.000000  -0.000000  -0.000126   0.000113  -0.041555
    20  H    0.000000   0.000000  -0.000004   0.000226   0.003505   0.000335
    21  H   -0.000015  -0.000006   0.008564   0.004545  -0.000094   0.000001
    22  H   -0.000171   0.004835   0.002660   0.001503   0.000028   0.000000
    23  H    0.000321   0.004167  -0.000060  -0.000000  -0.000000  -0.000000
    24  H    0.003867   0.000835   0.000001  -0.000000   0.000000   0.000000
    25  H   -0.036039   0.002548  -0.000043   0.000000  -0.000000   0.000000
    26  H    0.355428  -0.030861  -0.001305   0.000000  -0.000000  -0.000000
    27  H   -0.000000   0.000012  -0.000014   0.383173  -0.050329   0.000000
              19         20         21         22         23         24
     1  F   -0.035768   0.000009   0.000000  -0.000000   0.000000   0.000000
     2  S    0.454719   0.001967  -0.000027  -0.000000   0.000000   0.000000
     3  C   -0.056167  -0.035691   0.005282   0.000001  -0.000000   0.000000
     4  C    0.000002   0.362193  -0.041744   0.000001   0.000000  -0.000000
     5  C    0.000083  -0.029581   0.370527  -0.000078   0.000000   0.000000
     6  C    0.000000   0.003317  -0.037161  -0.002742   0.000001  -0.000000
     7  C   -0.000000  -0.000034  -0.010390  -0.030992  -0.000105   0.000003
     8  C    0.000000   0.000001   0.000237   0.355473  -0.005512  -0.000148
     9  C   -0.000000  -0.000000   0.000036  -0.023114  -0.036496   0.002191
    10  C   -0.000000   0.000000  -0.000001  -0.002191   0.364003  -0.034364
    11  C    0.000000  -0.000000   0.000000  -0.000036  -0.039356   0.367422
    12  C   -0.000000   0.000000  -0.000000   0.000006   0.003987  -0.036777
    13  C    0.000000   0.000000  -0.000015  -0.000171   0.000321   0.003867
    14  C    0.000000   0.000000  -0.000006   0.004835   0.004167   0.000835
    15  O   -0.000000  -0.000004   0.008564   0.002660  -0.000060   0.000001
    16  C   -0.000126   0.000226   0.004545   0.001503  -0.000000  -0.000000
    17  N    0.000113   0.003505  -0.000094   0.000028  -0.000000   0.000000
    18  O   -0.041555   0.000335   0.000001   0.000000  -0.000000   0.000000
    19  O    8.162358   0.000426   0.000001   0.000000  -0.000000   0.000000
    20  H    0.000426   0.469675  -0.004352   0.000000  -0.000000   0.000000
    21  H    0.000001  -0.004352   0.484761  -0.000006   0.000000  -0.000000
    22  H    0.000000   0.000000  -0.000006   0.495106   0.001717  -0.000002
    23  H   -0.000000  -0.000000   0.000000   0.001717   0.531867  -0.003881
    24  H    0.000000   0.000000  -0.000000  -0.000002  -0.003881   0.528691
    25  H    0.000000  -0.000000  -0.000000   0.000000  -0.000153  -0.004285
    26  H   -0.000000  -0.000000   0.000027   0.000002   0.000015  -0.000131
    27  H    0.000000   0.000020  -0.000122   0.002327   0.000000   0.000000
              25         26         27
     1  F    0.000000   0.000000   0.000004
     2  S   -0.000000   0.000000  -0.000173
     3  C   -0.000000   0.000000   0.006518
     4  C   -0.000000   0.000000   0.000213
     5  C   -0.000000  -0.000000   0.003703
     6  C   -0.000000   0.000003  -0.061051
     7  C   -0.000001   0.000103  -0.003157
     8  C    0.000013  -0.000309   0.004020
     9  C    0.000712   0.004574   0.000046
    10  C    0.003937   0.000327  -0.000001
    11  C   -0.036168   0.003688  -0.000000
    12  C    0.368223  -0.035839   0.000000
    13  C   -0.036039   0.355428  -0.000000
    14  C    0.002548  -0.030861   0.000012
    15  O   -0.000043  -0.001305  -0.000014
    16  C    0.000000   0.000000   0.383173
    17  N   -0.000000  -0.000000  -0.050329
    18  O    0.000000  -0.000000   0.000000
    19  O    0.000000  -0.000000   0.000000
    20  H   -0.000000  -0.000000   0.000020
    21  H   -0.000000   0.000027  -0.000122
    22  H    0.000000   0.000002   0.002327
    23  H   -0.000153   0.000015   0.000000
    24  H   -0.004285  -0.000131   0.000000
    25  H    0.526185  -0.004265  -0.000000
    26  H   -0.004265   0.518370   0.000000
    27  H   -0.000000   0.000000   0.514690
 Mulliken charges:
               1
     1  F   -0.267319
     2  S    1.251768
     3  C    0.001938
     4  C   -0.156283
     5  C   -0.149069
     6  C    0.014918
     7  C    0.292014
     8  C   -0.247934
     9  C    0.075310
    10  C   -0.222650
    11  C   -0.172489
    12  C   -0.180759
    13  C   -0.214028
    14  C    0.343700
    15  O   -0.537610
    16  C    0.009393
    17  N   -0.442521
    18  O   -0.483582
    19  O   -0.484087
    20  H    0.227987
    21  H    0.219937
    22  H    0.195673
    23  H    0.179486
    24  H    0.176577
    25  H    0.179337
    26  H    0.190175
    27  H    0.200120
 Sum of Mulliken charges =  -0.00000
 Mulliken charges with hydrogens summed into heavy atoms:
               1
     1  F   -0.267319
     2  S    1.251768
     3  C    0.001938
     4  C    0.071704
     5  C    0.070868
     6  C    0.014918
     7  C    0.292014
     8  C   -0.052261
     9  C    0.075310
    10  C   -0.043165
    11  C    0.004088
    12  C   -0.001423
    13  C   -0.023853
    14  C    0.343700
    15  O   -0.537610
    16  C    0.209513
    17  N   -0.442521
    18  O   -0.483582
    19  O   -0.484087
 Electronic spatial extent (au):  <R**2>=           8496.3142
 Charge=             -0.0000 electrons
 Dipole moment (field-independent basis, Debye):
    X=              7.4048    Y=             -0.0333    Z=             -0.0797  Tot=              7.4053
 Quadrupole moment (field-independent basis, Debye-Ang):
   XX=           -126.6207   YY=           -101.7558   ZZ=           -120.7819
   XY=             -0.3803   XZ=              0.6355   YZ=              0.0822
 Traceless Quadrupole moment (field-independent basis, Debye-Ang):
   XX=            -10.2346   YY=             14.6303   ZZ=             -4.3957
   XY=             -0.3803   XZ=              0.6355   YZ=              0.0822
 Octapole moment (field-independent basis, Debye-Ang**2):
  XXX=            198.6717  YYY=             -2.9950  ZZZ=             -0.2244  XYY=              5.8503
  XXY=             16.6115  XXZ=              2.9758  XZZ=            -20.8565  YZZ=              4.4140
  YYZ=              0.2658  XYZ=              0.0596
 Hexadecapole moment (field-independent basis, Debye-Ang**3):
 XXXX=          -9675.8514 YYYY=           -693.6910 ZZZZ=           -225.2037 XXXY=           -203.3573
 XXXZ=             17.5805 YYYX=            -10.1151 YYYZ=              0.5795 ZZZX=             -1.9157
 ZZZY=              0.9271 XXYY=          -1664.9159 XXZZ=          -1881.4632 YYZZ=           -177.5077
 XXYZ=              2.0112 YYXZ=             -0.2459 ZZXY=            -34.8209
 N-N= 1.441986526898D+03 E-N=-5.881531050448D+03  KE= 1.268724338985D+03
 No NMR shielding tensors so no spin-rotation constants.
 Leave Link  601 at Fri Oct  4 16:10:03 2024, MaxMem=  2097152000 cpu:               2.8 elap:               0.2
 (Enter /uufs/chpc.utah.edu/sys/installdir/gaussian16/C01/AVX/g16/l701.exe)
 ... and contract with generalized density number  0.
 Compute integral first derivatives.
 R6APFD:  NTU= -4 IXU= 1 FactS= 1.050
 R6Disp: Adding Petersson-Frisch dispersion energy 1st derivatives to the gradient.
 Leave Link  701 at Fri Oct  4 16:10:03 2024, MaxMem=  2097152000 cpu:               2.7 elap:               0.2
 (Enter /uufs/chpc.utah.edu/sys/installdir/gaussian16/C01/AVX/g16/l702.exe)
 L702 exits ... SP integral derivatives will be done elsewhere.
 Leave Link  702 at Fri Oct  4 16:10:04 2024, MaxMem=  2097152000 cpu:               0.6 elap:               0.0
 (Enter /uufs/chpc.utah.edu/sys/installdir/gaussian16/C01/AVX/g16/l703.exe)
 Integral derivatives from FoFJK, PRISM(SPDF).
 Compute integral first derivatives, UseDBF=F ICtDFT=           0.
 Calling FoFJK, ICntrl=      2127 FMM=F ISym2X=0 I1Cent= 0 IOpClX= 0 NMat=1 NMatS=1 NMatT=0.
 FoFJK:  IHMeth= 1 ICntrl=    2127 DoSepK=F KAlg= 0 I1Cent=           0 FoldK=F
 IRaf=         0 NMat=       1 IRICut=       1 DoRegI=T DoRafI=F ISym2E= 0 IDoP0=0 IntGTp=1.
 FoFCou: FMM=F IPFlag=           0 FMFlag=      100000 FMFlg1=         800
         NFxFlg=           0 DoJE=F BraDBF=F KetDBF=F FulRan=T
         wScrn=  0.000000 ICntrl=      2127 IOpCl=  0 I1Cent=           0 NGrid=           0
         NMat0=    1 NMatS0=      1 NMatT0=    0 NMatD0=    1 NMtDS0=    0 NMtDT0=    0
 Symmetry not used in FoFCou.
 Leave Link  703 at Fri Oct  4 16:10:10 2024, MaxMem=  2097152000 cpu:              97.4 elap:               6.1
 (Enter /uufs/chpc.utah.edu/sys/installdir/gaussian16/C01/AVX/g16/l716.exe)
 Dipole        = 2.91327572D+00-1.30878100D-02-3.13537366D-02
 ***** Axes restored to original set *****
 -------------------------------------------------------------------
 Center     Atomic                   Forces (Hartrees/Bohr)
 Number     Number              X              Y              Z
 -------------------------------------------------------------------
      1        9           0.007205040   -0.001018761    0.011447147
      2       16          -0.017775114   -0.015390534   -0.024064463
      3        6           0.022313523    0.033201628    0.027200252
      4        6           0.000405751   -0.003793857    0.002166315
      5        6          -0.002980391   -0.003061909   -0.003591656
      6        6           0.000318294   -0.003688068    0.002510433
      7        6           0.007987386    0.002987618    0.012198158
      8        6          -0.008724409    0.006881581   -0.016701406
      9        6           0.007578424    0.003352467    0.011886140
     10        6           0.000763037   -0.008897249    0.004511092
     11        6           0.001877181    0.016994952   -0.002409997
     12        6          -0.005754641   -0.004061233   -0.009262466
     13        6           0.003024042    0.002577553    0.004853818
     14        6          -0.006562946   -0.014586752   -0.006781377
     15        8          -0.003313275   -0.005936296   -0.003430686
     16        6          -0.007383739    0.021551269   -0.018841007
     17        7          -0.002609241   -0.032460952    0.006268017
     18        8           0.006412577    0.000457184   -0.000561287
     19        8          -0.002786295    0.001957979    0.004782360
     20        1          -0.000031387   -0.000064354   -0.000271753
     21        1           0.001204616    0.002231736    0.001125888
     22        1          -0.000099057    0.001407676   -0.000653948
     23        1           0.000116029    0.000696602   -0.000191206
     24        1          -0.000456501    0.000396569   -0.001074203
     25        1          -0.000367953    0.000608426   -0.000923864
     26        1          -0.000702359   -0.001040870   -0.000998010
     27        1           0.000341407   -0.001302406    0.000807709
 -------------------------------------------------------------------
 Cartesian Forces:  Max     0.033201628 RMS     0.009661975
 Leave Link  716 at Fri Oct  4 16:10:10 2024, MaxMem=  2097152000 cpu:               0.7 elap:               0.1
 (Enter /uufs/chpc.utah.edu/sys/installdir/gaussian16/C01/AVX/g16/l103.exe)

 GradGradGradGradGradGradGradGradGradGradGradGradGradGradGradGradGradGrad
 Berny optimization.
 FormGI is forming the generalized inverse of G from B-inverse, IUseBI=4.
 GSVD:  received Info=                   1 from GESDD.
 Internal  Forces:  Max     0.032918974 RMS     0.005511574
 Search for a local minimum.
 Step number   1 out of a maximum of  152
 All quantities printed in internal units (Hartrees-Bohrs-Radians)
 RMS Force = .55116D-02 SwitMx=.10000D-02 MixMth= 1
 Mixed Optimization -- RFO/linear search
 Second derivative matrix not updated -- first step.
 ITU=  0
     Eigenvalues ---    0.00670   0.01312   0.01582   0.01842   0.01844
     Eigenvalues ---    0.01986   0.02033   0.02062   0.02074   0.02087
     Eigenvalues ---    0.02094   0.02108   0.02109   0.02112   0.02130
     Eigenvalues ---    0.02145   0.02167   0.02189   0.02201   0.02210
     Eigenvalues ---    0.02222   0.02267   0.11263   0.12561   0.15998
     Eigenvalues ---    0.15999   0.16000   0.16000   0.16000   0.16000
     Eigenvalues ---    0.16000   0.16000   0.22000   0.22329   0.22596
     Eigenvalues ---    0.23394   0.23787   0.24567   0.24567   0.24997
     Eigenvalues ---    0.24997   0.24998   0.24999   0.25000   0.25000
     Eigenvalues ---    0.25000   0.27987   0.34976   0.35007   0.35031
     Eigenvalues ---    0.35106   0.35295   0.35388   0.35635   0.35955
     Eigenvalues ---    0.37120   0.39377   0.40438   0.41565   0.42708
     Eigenvalues ---    0.43481   0.44121   0.45173   0.45668   0.46041
     Eigenvalues ---    0.46411   0.47440   0.47552   0.49515   0.51428
     Eigenvalues ---    0.51775   0.52876   0.53778   0.95364   0.95528
 RFO step:  Lambda=-1.24622649D-02 EMin= 6.70173299D-03
 Linear search not attempted -- first point.
 Iteration  1 RMS(Cart)=  0.05056352 RMS(Int)=  0.00168177
 Iteration  2 RMS(Cart)=  0.00196618 RMS(Int)=  0.00017438
 Iteration  3 RMS(Cart)=  0.00000421 RMS(Int)=  0.00017436
 Iteration  4 RMS(Cart)=  0.00000000 RMS(Int)=  0.00017436
 ITry= 1 IFail=0 DXMaxC= 2.86D-01 DCOld= 1.00D+10 DXMaxT= 3.00D-01 DXLimC= 3.00D+00 Rises=F
 Variable       Old X    -DE/DX   Delta X   Delta X   Delta X     New X
                                 (Linear)    (Quad)   (Total)
    R1        2.99934   0.00159   0.00000   0.00289   0.00289   3.00223
    R2        3.35867   0.00279   0.00000   0.00955   0.00955   3.36822
    R3        2.74255  -0.00645   0.00000  -0.00668  -0.00668   2.73587
    R4        2.74185  -0.00587   0.00000  -0.00606  -0.00606   2.73578
    R5        2.61662   0.00255   0.00000   0.00483   0.00487   2.62149
    R6        2.56599  -0.02364   0.00000  -0.04499  -0.04496   2.52103
    R7        2.63559  -0.00849   0.00000  -0.01601  -0.01600   2.61959
    R8        2.05050   0.00023   0.00000   0.00063   0.00063   2.05114
    R9        2.65092  -0.00372   0.00000  -0.00596  -0.00599   2.64493
   R10        2.05714  -0.00218   0.00000  -0.00601  -0.00601   2.05112
   R11        2.75665  -0.00981   0.00000  -0.02557  -0.02557   2.73109
   R12        2.64043   0.00408   0.00000   0.00875   0.00872   2.64915
   R13        2.61346  -0.01504   0.00000  -0.03245  -0.03240   2.58106
   R14        2.58632   0.00431   0.00000   0.00636   0.00647   2.59279
   R15        2.68341   0.00549   0.00000   0.01319   0.01311   2.69652
   R16        2.04152   0.00122   0.00000   0.00329   0.00329   2.04480
   R17        2.65688  -0.00354   0.00000  -0.00721  -0.00724   2.64964
   R18        2.62337   0.01386   0.00000   0.03223   0.03210   2.65548
   R19        2.64999  -0.01240   0.00000  -0.02749  -0.02749   2.62250
   R20        2.05198   0.00050   0.00000   0.00137   0.00137   2.05335
   R21        2.64105   0.00895   0.00000   0.01765   0.01769   2.65873
   R22        2.05663  -0.00120   0.00000  -0.00332  -0.00332   2.05330
   R23        2.64439  -0.00706   0.00000  -0.01554  -0.01552   2.62887
   R24        2.05625  -0.00096   0.00000  -0.00265  -0.00265   2.05359
   R25        2.63240  -0.00581   0.00000  -0.01126  -0.01127   2.62113
   R26        2.04657   0.00157   0.00000   0.00427   0.00427   2.05083
   R27        2.57253  -0.00294   0.00000  -0.00449  -0.00447   2.56807
   R28        2.56369  -0.02612   0.00000  -0.04910  -0.04911   2.51459
   R29        2.05504  -0.00013   0.00000  -0.00036  -0.00036   2.05468
    A1        1.87601  -0.03292   0.00000  -0.13507  -0.13550   1.74051
    A2        1.84336   0.00892   0.00000   0.02230   0.02168   1.86504
    A3        1.84391   0.00886   0.00000   0.02252   0.02206   1.86597
    A4        1.88096   0.00401   0.00000   0.02060   0.01968   1.90064
    A5        1.88210   0.00461   0.00000   0.02303   0.02216   1.90426
    A6        2.12464   0.00074   0.00000   0.02046   0.01929   2.14394
    A7        2.09363  -0.01099   0.00000  -0.04043  -0.04048   2.05315
    A8        2.00680   0.00709   0.00000   0.02848   0.02843   2.03524
    A9        2.18260   0.00390   0.00000   0.01213   0.01218   2.19478
   A10        2.04808  -0.00255   0.00000  -0.00635  -0.00632   2.04176
   A11        2.12055   0.00117   0.00000   0.00262   0.00259   2.12314
   A12        2.11452   0.00138   0.00000   0.00380   0.00377   2.11829
   A13        2.10245  -0.00635   0.00000  -0.01807  -0.01811   2.08434
   A14        2.07828   0.00494   0.00000   0.01933   0.01932   2.09760
   A15        2.10242   0.00141   0.00000  -0.00117  -0.00118   2.10124
   A16        2.13004  -0.00238   0.00000  -0.01173  -0.01171   2.11833
   A17        2.03722   0.00289   0.00000   0.01643   0.01636   2.05358
   A18        2.11584  -0.00051   0.00000  -0.00459  -0.00457   2.11127
   A19        2.34447  -0.00853   0.00000  -0.02956  -0.02962   2.31485
   A20        2.02911  -0.00276   0.00000  -0.00758  -0.00764   2.02147
   A21        1.90953   0.01128   0.00000   0.03718   0.03729   1.94682
   A22        1.86881  -0.00344   0.00000  -0.01661  -0.01668   1.85213
   A23        2.20826   0.00074   0.00000   0.00266   0.00268   2.21094
   A24        2.20606   0.00270   0.00000   0.01404   0.01405   2.22011
   A25        2.36747   0.00011   0.00000  -0.00535  -0.00521   2.36226
   A26        1.84518  -0.00130   0.00000  -0.00025  -0.00040   1.84478
   A27        2.07054   0.00119   0.00000   0.00560   0.00561   2.07614
   A28        2.07073  -0.00251   0.00000  -0.00996  -0.01000   2.06072
   A29        2.11126   0.00071   0.00000   0.00185   0.00187   2.11313
   A30        2.10119   0.00179   0.00000   0.00812   0.00814   2.10933
   A31        2.11206   0.00248   0.00000   0.00786   0.00787   2.11993
   A32        2.08399  -0.00150   0.00000  -0.00546  -0.00547   2.07852
   A33        2.08714  -0.00098   0.00000  -0.00240  -0.00240   2.08473
   A34        2.11459   0.00229   0.00000   0.00764   0.00768   2.12227
   A35        2.08539  -0.00047   0.00000   0.00010   0.00008   2.08548
   A36        2.08320  -0.00182   0.00000  -0.00774  -0.00776   2.07544
   A37        2.03248  -0.00256   0.00000  -0.00896  -0.00896   2.02352
   A38        2.13050   0.00160   0.00000   0.00634   0.00634   2.13684
   A39        2.12020   0.00096   0.00000   0.00263   0.00263   2.12283
   A40        2.16597  -0.00089   0.00000  -0.00217  -0.00219   2.16378
   A41        1.92412  -0.00129   0.00000   0.00009   0.00002   1.92414
   A42        2.19309   0.00218   0.00000   0.00209   0.00217   2.19526
   A43        1.87711  -0.00525   0.00000  -0.02034  -0.02020   1.85691
   A44        2.18017  -0.00312   0.00000  -0.01525  -0.01529   2.16488
   A45        2.11665  -0.00004   0.00000  -0.00167  -0.00166   2.11499
   A46        1.98636   0.00317   0.00000   0.01696   0.01697   2.00332
   A47        2.01576   0.00523   0.00000   0.01121   0.01125   2.02701
    D1        3.13271   0.00017   0.00000   0.00823   0.00828   3.14099
    D2        0.00878  -0.00016   0.00000  -0.00254  -0.00246   0.00632
    D3        1.15327   0.00392   0.00000   0.03813   0.03827   1.19154
    D4       -1.97066   0.00359   0.00000   0.02736   0.02752  -1.94314
    D5       -1.16984  -0.00341   0.00000  -0.02047  -0.02070  -1.19054
    D6        1.98941  -0.00374   0.00000  -0.03124  -0.03145   1.95796
    D7       -3.11198  -0.00061   0.00000  -0.01718  -0.01704  -3.12902
    D8        0.02054  -0.00028   0.00000  -0.00836  -0.00826   0.01228
    D9        0.01006  -0.00024   0.00000  -0.00516  -0.00511   0.00495
   D10       -3.14061   0.00009   0.00000   0.00366   0.00368  -3.13693
   D11        3.11344   0.00044   0.00000   0.01684   0.01712   3.13055
   D12       -0.00946   0.00027   0.00000   0.00603   0.00598  -0.00349
   D13        0.00121  -0.00003   0.00000  -0.00129  -0.00125  -0.00004
[...]
                                                    271(v)
    57. CR (   1) O  18                  1.99988   -19.01992  84(v),88(v),63(v)
    58. CR (   1) O  19                  1.99988   -19.02442  84(v),88(v),272(v)
    63. LP*(   1) S   2                  0.77079    -0.23708  276(v),272(g),273(g),73(r)
                                                    271(g),87(g),79(r)
    64. LP (   1) O  15                  1.96885    -0.60785  292(v),285(v),133(v),203(v)
                                                    204(v),282(v)
    65. LP (   2) O  15                  1.73972    -0.35876  301(v),286(v),205(v),135(v)
    66. LP (   1) N  17                  1.90754    -0.38003  274(v),283(v),271(v),93(v)
                                                    305(v),223(v),94(v),226(v)
    67. LP (   1) O  18                  1.98246    -0.81850  63(v),273(v),88(v),271(v)
                                                    89(v)
    68. LP (   2) O  18                  1.79338    -0.31327  273(v),271(v),83(v),86(v)
                                                    87(v),84(v),250(g)
    69. LP (   3) O  18                  1.74011    -0.31295  63(v),85(v),86(v),84(v)
                                                    273(v),271(v),87(v),88(v)
                                                    247(g),252(g)
    70. LP (   1) O  19                  1.98287    -0.82064  88(v),63(v),272(v),271(v)
    71. LP (   2) O  19                  1.80799    -0.32094  272(v),271(v),83(v),86(v)
                                                    87(v),84(v),275(r)
    72. LP (   3) O  19                  1.75068    -0.31787  63(v),86(v),84(v),272(v)
                                                    271(v),87(v),260(g),78(r)
    83. RY*(   1) S   2                  0.06623     0.85655   
    84. RY*(   2) S   2                  0.04751     0.86508   
    85. RY*(   3) S   2                  0.04027     0.79162   
    86. RY*(   4) S   2                  0.03512     0.86371   
    87. RY*(   5) S   2                  0.01406     0.73791   
    88. RY*(   6) S   2                  0.00820     0.60431   
    89. RY*(   7) S   2                  0.00373     0.57007   
    90. RY*(   8) S   2                  0.00191     0.74664   
    91. RY*(   9) S   2                  0.00081     0.65385   
    92. RY*(  10) S   2                  0.00005     3.49040   
    93. RY*(   1) C   3                  0.01387     0.83233   
    94. RY*(   2) C   3                  0.00678     1.17959   
    95. RY*(   3) C   3                  0.00338     0.83932   
    96. RY*(   4) C   3                  0.00172     1.24220   
    97. RY*(   5) C   3                  0.00118     1.72274   
    98. RY*(   6) C   3                  0.00057     2.32159   
    99. RY*(   7) C   3                  0.00034     2.37788   
   100. RY*(   8) C   3                  0.00030     1.99705   
   101. RY*(   9) C   3                  0.00009     3.90163   
   102. RY*(  10) C   3                  0.00002     2.34302   
   103. RY*(   1) C   4                  0.00504     1.21322   
   104. RY*(   2) C   4                  0.00337     0.72962   
   105. RY*(   3) C   4                  0.00070     1.51665   
   106. RY*(   4) C   4                  0.00060     0.99926   
   107. RY*(   5) C   4                  0.00052     1.01318   
   108. RY*(   6) C   4                  0.00011     2.47160   
   109. RY*(   7) C   4                  0.00009     2.22628   
   110. RY*(   8) C   4                  0.00004     3.78635   
   111. RY*(   9) C   4                  0.00002     1.76201   
   112. RY*(  10) C   4                  0.00001     2.58954   
   113. RY*(   1) C   5                  0.00537     1.25394   
   114. RY*(   2) C   5                  0.00317     0.77562   
   115. RY*(   3) C   5                  0.00065     0.65729   
   116. RY*(   4) C   5                  0.00056     1.85628   
   117. RY*(   5) C   5                  0.00043     1.05733   
   118. RY*(   6) C   5                  0.00009     2.41135   
   119. RY*(   7) C   5                  0.00004     3.87232   
   120. RY*(   8) C   5                  0.00005     2.23001   
   121. RY*(   9) C   5                  0.00002     1.75596   
   122. RY*(  10) C   5                  0.00002     2.52642   
   123. RY*(   1) C   6                  0.00518     1.30250   
   124. RY*(   2) C   6                  0.00406     1.27818   
   125. RY*(   3) C   6                  0.00110     1.37656   
   126. RY*(   4) C   6                  0.00087     1.09356   
   127. RY*(   5) C   6                  0.00057     1.86154   
   128. RY*(   6) C   6                  0.00026     1.19887   
   129. RY*(   7) C   6                  0.00016     2.56890   
   130. RY*(   8) C   6                  0.00011     2.43111   
   131. RY*(   9) C   6                  0.00006     3.84152   
   132. RY*(  10) C   6                  0.00002     2.38491   
   133. RY*(   1) C   7                  0.00837     0.96485   
   134. RY*(   2) C   7                  0.00441     1.41762   
   135. RY*(   3) C   7                  0.00204     1.72515   
   136. RY*(   4) C   7                  0.00135     0.95311   
   137. RY*(   5) C   7                  0.00135     1.61089   
   138. RY*(   6) C   7                  0.00074     1.77710   
   139. RY*(   7) C   7                  0.00035     2.03270   
   140. RY*(   8) C   7                  0.00026     2.24140   
   141. RY*(   9) C   7                  0.00011     3.82859   
   142. RY*(  10) C   7                  0.00002     2.37017   
   143. RY*(   1) C   8                  0.00349     1.30098   
   144. RY*(   2) C   8                  0.00156     0.82588   
   145. RY*(   3) C   8                  0.00084     1.15805   
   146. RY*(   4) C   8                  0.00039     1.36893   
   147. RY*(   5) C   8                  0.00027     1.06339   
   148. RY*(   6) C   8                  0.00012     2.58403   
   149. RY*(   7) C   8                  0.00003     1.80931   
   150. RY*(   8) C   8                  0.00004     2.40241   
   151. RY*(   9) C   8                  0.00002     3.63501   
   152. RY*(  10) C   8                  0.00002     2.44895   
   153. RY*(   1) C   9                  0.00599     1.21291   
   154. RY*(   2) C   9                  0.00332     1.39518   
   155. RY*(   3) C   9                  0.00113     1.91784   
   156. RY*(   4) C   9                  0.00058     1.12680   
   157. RY*(   5) C   9                  0.00042     1.88968   
   158. RY*(   6) C   9                  0.00029     0.70135   
   159. RY*(   7) C   9                  0.00012     2.56031   
   160. RY*(   8) C   9                  0.00008     2.42402   
   161. RY*(   9) C   9                  0.00005     3.50511   
   162. RY*(  10) C   9                  0.00001     2.75448   
   163. RY*(   1) C  10                  0.00440     1.30388   
   164. RY*(   2) C  10                  0.00267     0.71853   
   165. RY*(   3) C  10                  0.00097     1.24338   
   166. RY*(   4) C  10                  0.00046     1.33659   
   167. RY*(   5) C  10                  0.00039     1.32061   
   168. RY*(   6) C  10                  0.00007     2.43865   
   169. RY*(   7) C  10                  0.00002     3.86761   
   170. RY*(   8) C  10                  0.00002     1.77202   
   171. RY*(   9) C  10                  0.00002     2.18079   
   172. RY*(  10) C  10                  0.00002     2.28628   
   173. RY*(   1) C  11                  0.00477     1.28153   
   174. RY*(   2) C  11                  0.00276     0.71682   
   175. RY*(   3) C  11                  0.00075     1.75720   
   176. RY*(   4) C  11                  0.00046     0.89479   
   177. RY*(   5) C  11                  0.00021     1.22216   
   178. RY*(   6) C  11                  0.00010     2.29266   
   179. RY*(   7) C  11                  0.00004     3.33824   
   180. RY*(   8) C  11                  0.00001     2.19828   
   181. RY*(   9) C  11                  0.00000     1.69035   
   182. RY*(  10) C  11                  0.00000     3.02053   
   183. RY*(   1) C  12                  0.00484     1.28505   
   184. RY*(   2) C  12                  0.00265     0.71841   
   185. RY*(   3) C  12                  0.00080     1.74417   
   186. RY*(   4) C  12                  0.00054     0.89522   
   187. RY*(   5) C  12                  0.00021     1.21527   
   188. RY*(   6) C  12                  0.00010     2.26012   
   189. RY*(   7) C  12                  0.00004     3.50135   
   190. RY*(   8) C  12                  0.00002     2.18909   
   191. RY*(   9) C  12                  0.00000     1.69117   
   192. RY*(  10) C  12                  0.00001     2.87949   
   193. RY*(   1) C  13                  0.00388     1.27325   
   194. RY*(   2) C  13                  0.00335     0.73610   
   195. RY*(   3) C  13                  0.00091     1.29624   
   196. RY*(   4) C  13                  0.00055     1.20256   
   197. RY*(   5) C  13                  0.00045     1.27915   
   198. RY*(   6) C  13                  0.00007     2.40667   
   199. RY*(   7) C  13                  0.00003     3.99334   
   200. RY*(   8) C  13                  0.00002     1.77372   
   201. RY*(   9) C  13                  0.00002     2.24226   
   202. RY*(  10) C  13                  0.00002     2.28477   
   203. RY*(   1) C  14                  0.00603     0.92232   
   204. RY*(   2) C  14                  0.00438     1.41957   
   205. RY*(   3) C  14                  0.00214     1.88579   
   206. RY*(   4) C  14                  0.00177     1.58346   
   207. RY*(   5) C  14                  0.00084     1.61088   
   208. RY*(   6) C  14                  0.00066     1.00056   
   209. RY*(   7) C  14                  0.00032     2.20777   
   210. RY*(   8) C  14                  0.00027     2.02810   
   211. RY*(   9) C  14                  0.00006     3.88331   
   212. RY*(  10) C  14                  0.00001     2.45810   
   213. RY*(   1) O  15                  0.00235     1.19047   
   214. RY*(   2) O  15                  0.00124     1.04621   
   215. RY*(   3) O  15                  0.00057     1.70712   
   216. RY*(   4) O  15                  0.00055     1.94669   
   217. RY*(   5) O  15                  0.00014     2.41804   
   218. RY*(   6) O  15                  0.00008     2.35775   
   219. RY*(   7) O  15                  0.00005     3.03242   
   220. RY*(   8) O  15                  0.00004     1.85067   
   221. RY*(   9) O  15                  0.00003     3.03091   
   222. RY*(  10) O  15                  0.00001     2.38884   
   223. RY*(   1) C  16                  0.00641     1.09747   
   224. RY*(   2) C  16                  0.00506     0.86011   
   225. RY*(   3) C  16                  0.00119     1.60466   
   226. RY*(   4) C  16                  0.00074     1.56089   
   227. RY*(   5) C  16                  0.00070     1.11044   
   228. RY*(   6) C  16                  0.00032     1.84820   
   229. RY*(   7) C  16                  0.00007     2.50327   
   230. RY*(   8) C  16                  0.00005     3.73763   
   231. RY*(   9) C  16                  0.00002     1.76241   
   232. RY*(  10) C  16                  0.00001     2.35903   
   233. RY*(   1) N  17                  0.00632     0.86539   
   234. RY*(   2) N  17                  0.00276     1.18680   
   235. RY*(   3) N  17                  0.00105     1.13631   
   236. RY*(   4) N  17                  0.00050     1.80059   
   237. RY*(   5) N  17                  0.00030     1.41625   
   238. RY*(   6) N  17                  0.00019     2.26438   
   239. RY*(   7) N  17                  0.00006     2.10475   
   240. RY*(   8) N  17                  0.00004     1.89079   
   241. RY*(   9) N  17                  0.00003     2.28576   
   242. RY*(  10) N  17                  0.00001     3.67612   
   243. RY*(   1) O  18                  0.00116     1.40265   
   244. RY*(   2) O  18                  0.00067     1.22190   
   245. RY*(   3) O  18                  0.00039     1.46345   
   246. RY*(   4) O  18                  0.00019     1.63273   
   247. RY*(   5) O  18                  0.00008     1.98050   
   248. RY*(   6) O  18                  0.00006     1.79884   
   249. RY*(   7) O  18                  0.00003     1.76763   
   250. RY*(   8) O  18                  0.00003     1.85953   
   251. RY*(   9) O  18                  0.00000     3.65674   
   252. RY*(  10) O  18                  0.00001     1.98756   
   253. RY*(   1) O  19                  0.00101     1.57350   
   254. RY*(   2) O  19                  0.00059     1.51641   
   255. RY*(   3) O  19                  0.00042     1.23805   
   256. RY*(   4) O  19                  0.00020     1.43451   
   257. RY*(   5) O  19                  0.00010     2.23972   
   258. RY*(   6) O  19                  0.00006     2.11157   
   259. RY*(   7) O  19                  0.00002     1.89016   
   260. RY*(   8) O  19                  0.00002     2.09939   
   261. RY*(   9) O  19                  0.00002     2.01410   
   262. RY*(  10) O  19                  0.00001     2.43359   
   263. RY*(   1) H  20                  0.00105     0.57889   
   264. RY*(   1) H  21                  0.00105     0.57363   
   265. RY*(   1) H  22                  0.00049     0.56219   
   266. RY*(   1) H  23                  0.00085     0.55695   
   267. RY*(   1) H  24                  0.00070     0.56934   
   268. RY*(   1) H  25                  0.00067     0.56731   
   269. RY*(   1) H  26                  0.00096     0.56241   
   270. RY*(   1) H  27                  0.00104     0.60379   
   271. BD*(   1) S   2 - C   3          0.21633     0.13847  83(g),85(g),272(g),273(g)
                                                    279(v),277(v),304(v),90(g)
                                                    96(g),274(g)
   272. BD*(   1) S   2 - O  18          0.15354     0.28598  273(g),84(g),83(g),85(g)
                                                    271(g),87(g),246(g),86(g)
                                                    63(g),89(g),245(g),274(v)
   273. BD*(   1) S   2 - O  19          0.15736     0.28135  272(g),84(g),83(g),87(g)
                                                    86(g),271(g),256(g),275(v)
                                                    88(g),63(g),85(g),93(v)
                                                    274(v)
   274. BD*(   1) C   3 - C   4          0.03516     0.53706   
   275. BD*(   1) C   3 - N  17          0.02626     0.51728   
   276. BD*(   2) C   3 - N  17          0.47920    -0.03679  284(v),278(v),63(v),235(g)
                                                    95(g),272(v),87(v),105(v)
                                                    225(v)
   277. BD*(   1) C   4 - C   5          0.01533     0.55901   
   278. BD*(   2) C   4 - C   5          0.28376     0.00053  284(v),276(v),107(g),115(g)
   279. BD*(   1) C   4 - H  20          0.01432     0.46938   
   280. BD*(   1) C   5 - C   6          0.02191     0.54130   
   281. BD*(   1) C   5 - H  21          0.01300     0.46540   
   282. BD*(   1) C   6 - C   7          0.03145     0.49252   
   283. BD*(   1) C   6 - C  16          0.03291     0.52574   
   284. BD*(   2) C   6 - C  16          0.36053    -0.00342  278(v),286(v),276(v),227(g)
                                                    128(g),237(v),115(v)
   285. BD*(   1) C   7 - C   8          0.01858     0.58865   
   286. BD*(   2) C   7 - C   8          0.27889     0.01443  291(v),284(v),301(r),146(g)
                                                    138(g)
   287. BD*(   1) C   7 - O  15          0.02743     0.33411   
   288. BD*(   1) C   8 - C   9          0.01953     0.52114   
   289. BD*(   1) C   8 - H  22          0.01273     0.46693   
   290. BD*(   1) C   9 - C  10          0.02327     0.57224   
   291. BD*(   2) C   9 - C  10          0.44340     0.02350  296(v),301(v),286(v),165(g)
                                                    158(g),176(v),145(v)
   292. BD*(   1) C   9 - C  14          0.03256     0.53918   
   293. BD*(   1) C  10 - C  11          0.01350     0.58871   
   294. BD*(   1) C  10 - H  23          0.01299     0.47467   
   295. BD*(   1) C  11 - C  12          0.01556     0.56109   
   296. BD*(   2) C  11 - C  12          0.38409     0.02128  291(v),301(v),176(g),186(g)
                                                    185(g),175(g),197(v),166(v)
   297. BD*(   1) C  11 - H  24          0.01159     0.48340   
   298. BD*(   1) C  12 - C  13          0.01340     0.57959   
   299. BD*(   1) C  12 - H  25          0.01139     0.48247   
   300. BD*(   1) C  13 - C  14          0.02205     0.57479   
   301. BD*(   2) C  13 - C  14          0.40409     0.01713  296(v),291(v),286(r),195(g)
                                                    208(g),186(v)
   302. BD*(   1) C  13 - H  26          0.01275     0.47274   
   303. BD*(   1) C  14 - O  15          0.02855     0.35756   
   304. BD*(   1) C  16 - N  17          0.01287     0.53649   
   305. BD*(   1) C  16 - H  27          0.02107     0.45900   
       -------------------------------
              Total Lewis  127.65790  ( 96.3433%)
        Valence non-Lewis    4.43217  (  3.3450%)
        Rydberg non-Lewis    0.41311  (  0.3118%)
       -------------------------------
            Total unit  2  132.50318  (100.0000%)
           Charge unit  2    0.49682


 NATURAL LOCALIZED MOLECULAR ORBITAL (NLMO) ANALYSIS:

 Highest occupied NBOs are not at the beginning of the NBO list;
 The NLMO program is not currently set up to handle this.
 Leave Link  607 at Fri Oct  4 16:25:21 2024, MaxMem=  2097152000 cpu:              31.5 elap:               2.0
 (Enter /uufs/chpc.utah.edu/sys/installdir/gaussian16/C01/AVX/g16/l9999.exe)
 Unable to Open any file for archive entry.
 1\1\GINC-NOTCH132\SP\RAPFD\6-31G(d)\C13H8F1N1O3S1\U1318517\04-Oct-2024
 \0\\#p apfd/6-31G* volume NMR pop=NPA geom=check guess=read\\ID-4001\\
 0,1\F,0,3.7029956955,0.5275590897,-0.3653833289\S,0,2.3559208313,-0.06
 45477169,0.2777177835\C,0,3.0721886178,-0.9063503178,1.684032231\C,0,3
 .0269367195,-2.2940577001,1.7238325797\C,0,3.5693417754,-2.9070645926,
 2.846482748\C,0,4.127624423,-2.1157156252,3.8580038417\C,0,4.704857261
 1,-2.7083353287,5.046012979\C,0,5.2919231769,-2.1696073257,6.154333202
 8\C,0,5.6671944216,-3.2681473208,6.989642811\C,0,6.2939241625,-3.40887
 89839,8.2359507115\C,0,6.4881187577,-4.6904665466,8.7309425988\C,0,6.0
 709974828,-5.8247845417,8.0095043758\C,0,5.4471919588,-5.7109359018,6.
 7714939775\C,0,5.262563807,-4.4204451147,6.2946413933\O,0,4.6786305796
 ,-4.0785873822,5.1152701567\C,0,4.109312085,-0.7187151366,3.6819824854
 \N,0,3.590144792,-0.1231242113,2.6202029845\O,0,1.5711049397,1.0695383
 563,0.6956822715\O,0,1.8611026764,-1.0526488086,-0.6552682366\H,0,2.58
 59860827,-2.8598967258,0.9104422533\H,0,3.5650248364,-3.9876721032,2.9
 460328243\H,0,5.4407470902,-1.1178359015,6.356937294\H,0,6.617820273,-
 2.5364526698,8.7969890207\H,0,6.9716494194,-4.8255582819,9.6948261076\
 H,0,6.2397268855,-6.8131720483,8.4286784705\H,0,5.120357643,-6.5767884
 792,6.204374102\H,0,4.5330936063,-0.059318681,4.4358623612\\Version=ES
 64L-G16RevC.01\State=1-A\HF=-1277.8004427\RMSD=6.940e-09\Dipole=1.2535
 433,-1.6997764,2.1343362\Quadrupole=-2.0105134,2.2318131,-0.2212997,5.
 8240083,-1.3274762,6.7384409\PG=C01 [X(C13H8F1N1O3S1)]\\@
 The archive entry for this job was punched.


 THE HURRIEDER I GO, THE BEHINDER I GET.
 Job cpu time:       0 days  0 hours  4 minutes 24.4 seconds.
 Elapsed time:       0 days  0 hours  0 minutes 21.5 seconds.
 File lengths (MBytes):  RWF=     70 Int=      0 D2E=      0 Chk=     11 Scr=      2
 Normal termination of Gaussian 16 at Fri Oct  4 16:25:22 2024.
