 Entering Gaussian System, Link 0=g16
 Input=ID-4002.com
 Output=ID-4002.log
 Initial command:
 /uufs/chpc.utah.edu/sys/installdir/gaussian16/C01/AVX/g16/l1.exe "/scratch/general/vast/u1318517/1930432-notchpeak.peaks/Gau-594745.inp" -scrdir="/scratch/general/vast/u1318517/1930432-notchpeak.peaks/"
 Entering Link 1 = /uufs/chpc.utah.edu/sys/installdir/gaussian16/C01/AVX/g16/l1.exe PID=    594746.
  
 Copyright (c) 1988-2019, Gaussian, Inc.  All Rights Reserved.
  
 This is part of the Gaussian(R) 16 program.  It is based on
 the Gaussian(R) 09 system (copyright 2009, Gaussian, Inc.),
 the Gaussian(R) 03 system (copyright 2003, Gaussian, Inc.),
 the Gaussian(R) 98 system (copyright 1998, Gaussian, Inc.),
 the Gaussian(R) 94 system (copyright 1995, Gaussian, Inc.),
 the Gaussian 92(TM) system (copyright 1992, Gaussian, Inc.),
 the Gaussian 90(TM) system (copyright 1990, Gaussian, Inc.),
 the Gaussian 88(TM) system (copyright 1988, Gaussian, Inc.),
 the Gaussian 86(TM) system (copyright 1986, Carnegie Mellon
 University), and the Gaussian 82(TM) system (copyright 1983,
 Carnegie Mellon University). Gaussian is a federally registered
 trademark of Gaussian, Inc.
  
 This software contains proprietary and confidential information,
 including trade secrets, belonging to Gaussian, Inc.
  
 This software is provided under written license and may be
 used, copied, transmitted, or stored only in accord with that
 written license.
  
 The following legend is applicable only to US Government
 contracts under FAR:
  
                    RESTRICTED RIGHTS LEGEND
  
 Use, reproduction and disclosure by the US Government is
 subject to restrictions as set forth in subparagraphs (a)
 and (c) of the Commercial Computer Software - Restricted
 Rights clause in FAR 52.227-19.
  
 Gaussian, Inc.
 340 Quinnipiac St., Bldg. 40, Wallingford CT 06492
  
  
 ---------------------------------------------------------------
 Warning -- This program may not be used in any manner that
 competes with the business of Gaussian, Inc. or will provide
 assistance to any competitor of Gaussian, Inc.  The licensee
 of this program is prohibited from giving any competitor of
 Gaussian, Inc. access to this program.  By using this program,
 the user acknowledges that Gaussian, Inc. is engaged in the
 business of creating and licensing software in the field of
 computational chemistry and represents and warrants to the
 licensee that it is not a competitor of Gaussian, Inc. and that
 it will not use this program in any manner prohibited above.
 ---------------------------------------------------------------
  

 Cite this work as:
 Gaussian 16, Revision C.01,
 M. J. Frisch, G. W. Trucks, H. B. Schlegel, G. E. Scuseria, 
 M. A. Robb, J. R. Cheeseman, G. Scalmani, V. Barone, 
 G. A. Petersson, H. Nakatsuji, X. Li, M. Caricato, A. V. Marenich, 
 J. Bloino, B. G. Janesko, R. Gomperts, B. Mennucci, H. P. Hratchian, 
 J. V. Ortiz, A. F. Izmaylov, J. L. Sonnenberg, D. Williams-Young, 
 F. Ding, F. Lipparini, F. Egidi, J. Goings, B. Peng, A. Petrone, 
 T. Henderson, D. Ranasinghe, V. G. Zakrzewski, J. Gao, N. Rega, 
 G. Zheng, W. Liang, M. Hada, M. Ehara, K. Toyota, R. Fukuda, 
 J. Hasegawa, M. Ishida, T. Nakajima, Y. Honda, O. Kitao, H. Nakai, 
 T. Vreven, K. Throssell, J. A. Montgomery, Jr., J. E. Peralta, 
 F. Ogliaro, M. J. Bearpark, J. J. Heyd, E. N. Brothers, K. N. Kudin, 
 V. N. Staroverov, T. A. Keith, R. Kobayashi, J. Normand, 
 K. Raghavachari, A. P. Rendell, J. C. Burant, S. S. Iyengar, 
 J. Tomasi, M. Cossi, J. M. Millam, M. Klene, C. Adamo, R. Cammi, 
 J. W. Ochterski, R. L. Martin, K. Morokuma, O. Farkas, 
 J. B. Foresman, and D. J. Fox, Gaussian, Inc., Wallingford CT, 2019.
 
 ******************************************
 Gaussian 16:  ES64L-G16RevC.01  3-Jul-2019
                 4-Oct-2024 
 ******************************************
 %nprocs=16
 Will use up to   16 processors via shared memory.
 %mem=16000MB
 %chk=ID-4002.chk
 -------------------------------
 #p apfd/6-31G* opt freq=noraman
 -------------------------------
 1/18=20,19=15,26=3,38=1/1,3;
 2/9=110,12=2,17=6,18=5,40=1/2;
 3/5=1,6=6,7=1,11=2,25=1,30=1,71=1,74=-44/1,2,3;
 4//1;
 5/5=2,38=5/2;
 6/7=2,8=2,9=2,10=2,28=1/1;
 7//1,2,3,16;
 1/18=20,19=15,26=3/3(2);
 2/9=110/2;
 99//99;
 2/9=110/2;
 3/5=1,6=6,7=1,11=2,25=1,30=1,71=1,74=-44/1,2,3;
 4/5=5,16=3,69=1/1;
 5/5=2,38=5/2;
 7//1,2,3,16;
 1/18=20,19=15,26=3/3(-5);
 2/9=110/2;
 6/7=2,8=2,9=2,10=2,19=2,28=1/1;
 99/9=1/99;
 Leave Link    1 at Fri Oct  4 16:09:36 2024, MaxMem=  2097152000 cpu:               1.0 elap:               0.1
 (Enter /uufs/chpc.utah.edu/sys/installdir/gaussian16/C01/AVX/g16/l101.exe)
 -------
 ID-4002
 -------
 Symbolic Z-matrix:
 Charge =  0 Multiplicity = 1
 F                     3.08633  -0.99601  -1.34553 
 S                     2.93273  -0.01277  -0.10935 
 C                     3.27786   1.62931  -0.70067 
 C                     2.67015   2.72646  -0.11317 
 C                     2.84953   3.96662  -0.72707 
 C                     3.60864   4.07598  -1.90275 
 C                     3.70388   5.3586   -2.6201 
 C                     3.63797   6.64868  -2.12582 
 C                     3.66349   7.66202  -3.14607 
 C                     3.58672   9.07209  -3.05094 
 C                     3.61955   9.86311  -4.20495 
 C                     3.73278   9.27229  -5.45666 
 C                     3.81309   7.88531  -5.57961 
 C                     3.77303   7.09443  -4.4148 
 S                     3.83777   5.38314  -4.33016 
 C                     4.20408   2.9005   -2.37412 
 N                     4.05011   1.67468  -1.81498 
 O                     1.52535  -0.06675   0.24669 
 O                     3.96931  -0.38358   0.83438 
 H                     2.04549   2.62258   0.76819 
 H                     2.35118   4.83597  -0.30339 
 H                     3.55302   6.87875  -1.07045 
 H                     3.49372   9.54838  -2.07771 
 H                     3.5534    10.94495  -4.12004 
 H                     3.75641   9.89342  -6.34922 
 H                     3.89781   7.42378  -6.55955 
 H                     4.83616   2.89979  -3.25965 
 
 ITRead=  0  0  0  0  0  0  0  0  0  0  0  0  0  0  0  0  0  0  0  0
 ITRead=  0  0  0  0  0  0  0
 MicOpt= -1 -1 -1 -1 -1 -1 -1 -1 -1 -1 -1 -1 -1 -1 -1 -1 -1 -1 -1 -1
 MicOpt= -1 -1 -1 -1 -1 -1 -1
 NAtoms=     27 NQM=       27 NQMF=       0 NMMI=      0 NMMIF=      0
                NMic=       0 NMicF=      0.
                    Isotopes and Nuclear Properties:
 (Nuclear quadrupole moments (NQMom) in fm**2, nuclear magnetic moments (NMagM)
  in nuclear magnetons)

  Atom         1           2           3           4           5           6           7           8           9          10
 IAtWgt=          19          32          12          12          12          12          12          12          12          12
 AtmWgt=  18.9984032  31.9720718  12.0000000  12.0000000  12.0000000  12.0000000  12.0000000  12.0000000  12.0000000  12.0000000
 NucSpn=           1           0           0           0           0           0           0           0           0           0
 AtZEff=  -0.0000000  -0.0000000  -0.0000000  -0.0000000  -0.0000000  -0.0000000  -0.0000000  -0.0000000  -0.0000000  -0.0000000
 NQMom=    0.0000000   0.0000000   0.0000000   0.0000000   0.0000000   0.0000000   0.0000000   0.0000000   0.0000000   0.0000000
 NMagM=    2.6288670   0.0000000   0.0000000   0.0000000   0.0000000   0.0000000   0.0000000   0.0000000   0.0000000   0.0000000
 AtZNuc=   9.0000000  16.0000000   6.0000000   6.0000000   6.0000000   6.0000000   6.0000000   6.0000000   6.0000000   6.0000000

  Atom        11          12          13          14          15          16          17          18          19          20
 IAtWgt=          12          12          12          12          32          12          14          16          16           1
 AtmWgt=  12.0000000  12.0000000  12.0000000  12.0000000  31.9720718  12.0000000  14.0030740  15.9949146  15.9949146   1.0078250
 NucSpn=           0           0           0           0           0           0           2           0           0           1
 AtZEff=  -0.0000000  -0.0000000  -0.0000000  -0.0000000  -0.0000000  -0.0000000  -0.0000000  -0.0000000  -0.0000000  -0.0000000
 NQMom=    0.0000000   0.0000000   0.0000000   0.0000000   0.0000000   0.0000000   2.0440000   0.0000000   0.0000000   0.0000000
 NMagM=    0.0000000   0.0000000   0.0000000   0.0000000   0.0000000   0.0000000   0.4037610   0.0000000   0.0000000   2.7928460
 AtZNuc=   6.0000000   6.0000000   6.0000000   6.0000000  16.0000000   6.0000000   7.0000000   8.0000000   8.0000000   1.0000000

  Atom        21          22          23          24          25          26          27
 IAtWgt=           1           1           1           1           1           1           1
 AtmWgt=   1.0078250   1.0078250   1.0078250   1.0078250   1.0078250   1.0078250   1.0078250
 NucSpn=           1           1           1           1           1           1           1
 AtZEff=  -0.0000000  -0.0000000  -0.0000000  -0.0000000  -0.0000000  -0.0000000  -0.0000000
 NQMom=    0.0000000   0.0000000   0.0000000   0.0000000   0.0000000   0.0000000   0.0000000
 NMagM=    2.7928460   2.7928460   2.7928460   2.7928460   2.7928460   2.7928460   2.7928460
 AtZNuc=   1.0000000   1.0000000   1.0000000   1.0000000   1.0000000   1.0000000   1.0000000
 Leave Link  101 at Fri Oct  4 16:09:37 2024, MaxMem=  2097152000 cpu:              10.7 elap:               0.7
 (Enter /uufs/chpc.utah.edu/sys/installdir/gaussian16/C01/AVX/g16/l103.exe)

 GradGradGradGradGradGradGradGradGradGradGradGradGradGradGradGradGradGrad
 Berny optimization.
 Initialization pass.
                           ----------------------------
                           !    Initial Parameters    !
                           ! (Angstroms and Degrees)  !
 --------------------------                            --------------------------
 ! Name  Definition              Value          Derivative Info.                !
 --------------------------------------------------------------------------------
 ! R1    R(1,2)                  1.587          estimate D2E/DX2                !
 ! R2    R(2,3)                  1.7791         estimate D2E/DX2                !
 ! R3    R(2,18)                 1.4527         estimate D2E/DX2                !
 ! R4    R(2,19)                 1.45           estimate D2E/DX2                !
 ! R5    R(3,4)                  1.385          estimate D2E/DX2                !
 ! R6    R(3,17)                 1.3565         estimate D2E/DX2                !
 ! R7    R(4,5)                  1.3954         estimate D2E/DX2                !
 ! R8    R(4,20)                 1.0853         estimate D2E/DX2                !
 ! R9    R(5,6)                  1.4037         estimate D2E/DX2                !
 ! R10   R(5,21)                 1.0879         estimate D2E/DX2                !
 ! R11   R(6,7)                  1.4727         estimate D2E/DX2                !
 ! R12   R(6,16)                 1.3995         estimate D2E/DX2                !
 ! R13   R(7,8)                  1.3831         estimate D2E/DX2                !
 ! R14   R(7,15)                 1.7155         estimate D2E/DX2                !
 ! R15   R(8,9)                  1.4382         estimate D2E/DX2                !
 ! R16   R(8,22)                 1.0835         estimate D2E/DX2                !
 ! R17   R(9,10)                 1.4154         estimate D2E/DX2                !
 ! R18   R(9,14)                 1.3942         estimate D2E/DX2                !
 ! R19   R(10,11)                1.3995         estimate D2E/DX2                !
 ! R20   R(10,23)                1.0875         estimate D2E/DX2                !
 ! R21   R(11,12)                1.3888         estimate D2E/DX2                !
 ! R22   R(11,24)                1.0872         estimate D2E/DX2                !
 ! R23   R(12,13)                1.3947         estimate D2E/DX2                !
 ! R24   R(12,25)                1.0877         estimate D2E/DX2                !
 ! R25   R(13,14)                1.4085         estimate D2E/DX2                !
 ! R26   R(13,26)                1.0865         estimate D2E/DX2                !
 ! R27   R(14,15)                1.7146         estimate D2E/DX2                !
 ! R28   R(16,17)                1.3561         estimate D2E/DX2                !
 ! R29   R(16,27)                1.088          estimate D2E/DX2                !
 ! A1    A(1,2,3)              107.108          estimate D2E/DX2                !
 ! A2    A(1,2,18)             105.1683         estimate D2E/DX2                !
 ! A3    A(1,2,19)             106.2206         estimate D2E/DX2                !
 ! A4    A(3,2,18)             107.6795         estimate D2E/DX2                !
 ! A5    A(3,2,19)             108.2804         estimate D2E/DX2                !
 ! A6    A(18,2,19)            121.57           estimate D2E/DX2                !
 ! A7    A(2,3,4)              120.3348         estimate D2E/DX2                !
 ! A8    A(2,3,17)             114.4774         estimate D2E/DX2                !
 ! A9    A(4,3,17)             124.8725         estimate D2E/DX2                !
 ! A10   A(3,4,5)              117.4533         estimate D2E/DX2                !
 ! A11   A(3,4,20)             121.4144         estimate D2E/DX2                !
 ! A12   A(5,4,20)             121.0886         estimate D2E/DX2                !
 ! A13   A(4,5,6)              120.4805         estimate D2E/DX2                !
 ! A14   A(4,5,21)             118.6838         estimate D2E/DX2                !
 ! A15   A(6,5,21)             120.7723         estimate D2E/DX2                !
 ! A16   A(5,6,7)              120.7171         estimate D2E/DX2                !
 ! A17   A(5,6,16)             116.5359         estimate D2E/DX2                !
 ! A18   A(7,6,16)             122.6814         estimate D2E/DX2                !
 ! A19   A(6,7,8)              129.4356         estimate D2E/DX2                !
 ! A20   A(6,7,15)             120.2038         estimate D2E/DX2                !
 ! A21   A(8,7,15)             110.2808         estimate D2E/DX2                !
 ! A22   A(7,8,9)              113.7558         estimate D2E/DX2                !
 ! A23   A(7,8,22)             123.3596         estimate D2E/DX2                !
 ! A24   A(9,8,22)             122.8717         estimate D2E/DX2                !
 ! A25   A(8,9,10)             130.7919         estimate D2E/DX2                !
 ! A26   A(8,9,14)             111.1063         estimate D2E/DX2                !
 ! A27   A(10,9,14)            118.0997         estimate D2E/DX2                !
 ! A28   A(9,10,11)            120.4255         estimate D2E/DX2                !
 ! A29   A(9,10,23)            120.0738         estimate D2E/DX2                !
 ! A30   A(11,10,23)           119.4989         estimate D2E/DX2                !
 ! A31   A(10,11,12)           120.3097         estimate D2E/DX2                !
 ! A32   A(10,11,24)           119.7766         estimate D2E/DX2                !
 ! A33   A(12,11,24)           119.9135         estimate D2E/DX2                !
 ! A34   A(11,12,13)           120.4783         estimate D2E/DX2                !
 ! A35   A(11,12,25)           119.8979         estimate D2E/DX2                !
 ! A36   A(13,12,25)           119.6236         estimate D2E/DX2                !
 ! A37   A(12,13,14)           118.9368         estimate D2E/DX2                !
 ! A38   A(12,13,26)           120.426          estimate D2E/DX2                !
 ! A39   A(14,13,26)           120.6358         estimate D2E/DX2                !
 ! A40   A(9,14,13)            121.7489         estimate D2E/DX2                !
 ! A41   A(9,14,15)            111.3683         estimate D2E/DX2                !
 ! A42   A(13,14,15)           126.882          estimate D2E/DX2                !
 ! A43   A(7,15,14)             93.4708         estimate D2E/DX2                !
 ! A44   A(6,16,17)            124.8952         estimate D2E/DX2                !
 ! A45   A(6,16,27)            121.4589         estimate D2E/DX2                !
 ! A46   A(17,16,27)           113.6388         estimate D2E/DX2                !
 ! A47   A(3,17,16)            115.6944         estimate D2E/DX2                !
 ! D1    D(1,2,3,4)            150.1029         estimate D2E/DX2                !
 ! D2    D(1,2,3,17)           -23.7577         estimate D2E/DX2                !
 ! D3    D(18,2,3,4)            37.4313         estimate D2E/DX2                !
 ! D4    D(18,2,3,17)         -136.4292         estimate D2E/DX2                !
 ! D5    D(19,2,3,4)           -95.725          estimate D2E/DX2                !
 ! D6    D(19,2,3,17)           90.4144         estimate D2E/DX2                !
 ! D7    D(2,3,4,5)           -172.1106         estimate D2E/DX2                !
 ! D8    D(2,3,4,20)             5.5092         estimate D2E/DX2                !
 ! D9    D(17,3,4,5)             1.0757         estimate D2E/DX2                !
 ! D10   D(17,3,4,20)          178.6956         estimate D2E/DX2                !
 ! D11   D(2,3,17,16)          172.8442         estimate D2E/DX2                !
 ! D12   D(4,3,17,16)           -0.6958         estimate D2E/DX2                !
 ! D13   D(3,4,5,6)              0.6571         estimate D2E/DX2                !
 ! D14   D(3,4,5,21)           177.782          estimate D2E/DX2                !
 ! D15   D(20,4,5,6)          -176.9709         estimate D2E/DX2                !
 ! D16   D(20,4,5,21)            0.154          estimate D2E/DX2                !
 ! D17   D(4,5,6,7)            174.5883         estimate D2E/DX2                !
 ! D18   D(4,5,6,16)            -2.5435         estimate D2E/DX2                !
 ! D19   D(21,5,6,7)            -2.4761         estimate D2E/DX2                !
 ! D20   D(21,5,6,16)         -179.6079         estimate D2E/DX2                !
 ! D21   D(5,6,7,8)             29.6774         estimate D2E/DX2                !
 ! D22   D(5,6,7,15)          -146.7366         estimate D2E/DX2                !
 ! D23   D(16,6,7,8)          -153.3715         estimate D2E/DX2                !
 ! D24   D(16,6,7,15)           30.2146         estimate D2E/DX2                !
 ! D25   D(5,6,16,17)            3.0757         estimate D2E/DX2                !
 ! D26   D(5,6,16,27)         -177.9611         estimate D2E/DX2                !
 ! D27   D(7,6,16,17)         -173.9946         estimate D2E/DX2                !
 ! D28   D(7,6,16,27)            4.9685         estimate D2E/DX2                !
 ! D29   D(6,7,8,9)           -175.2466         estimate D2E/DX2                !
 ! D30   D(6,7,8,22)             3.4819         estimate D2E/DX2                !
 ! D31   D(15,7,8,9)             1.4497         estimate D2E/DX2                !
 ! D32   D(15,7,8,22)         -179.8218         estimate D2E/DX2                !
 ! D33   D(6,7,15,14)          175.8635         estimate D2E/DX2                !
 ! D34   D(8,7,15,14)           -1.1845         estimate D2E/DX2                !
 ! D35   D(7,8,9,10)           178.4439         estimate D2E/DX2                !
 ! D36   D(7,8,9,14)            -1.0048         estimate D2E/DX2                !
 ! D37   D(22,8,9,10)           -0.2917         estimate D2E/DX2                !
 ! D38   D(22,8,9,14)         -179.7404         estimate D2E/DX2                !
 ! D39   D(8,9,10,11)         -179.357          estimate D2E/DX2                !
 ! D40   D(8,9,10,23)            0.163          estimate D2E/DX2                !
 ! D41   D(14,9,10,11)           0.06           estimate D2E/DX2                !
 ! D42   D(14,9,10,23)         179.5799         estimate D2E/DX2                !
 ! D43   D(8,9,14,13)          179.7779         estimate D2E/DX2                !
 ! D44   D(8,9,14,15)            0.0863         estimate D2E/DX2                !
 ! D45   D(10,9,14,13)           0.251          estimate D2E/DX2                !
 ! D46   D(10,9,14,15)        -179.4406         estimate D2E/DX2                !
 ! D47   D(9,10,11,12)          -0.2327         estimate D2E/DX2                !
 ! D48   D(9,10,11,24)         179.6066         estimate D2E/DX2                !
 ! D49   D(23,10,11,12)       -179.7554         estimate D2E/DX2                !
 ! D50   D(23,10,11,24)          0.0839         estimate D2E/DX2                !
 ! D51   D(10,11,12,13)          0.0955         estimate D2E/DX2                !
 ! D52   D(10,11,12,25)        179.9235         estimate D2E/DX2                !
 ! D53   D(24,11,12,13)       -179.7436         estimate D2E/DX2                !
 ! D54   D(24,11,12,25)          0.0845         estimate D2E/DX2                !
 ! D55   D(11,12,13,14)          0.208          estimate D2E/DX2                !
 ! D56   D(11,12,13,26)        179.764          estimate D2E/DX2                !
 ! D57   D(25,12,13,14)       -179.6205         estimate D2E/DX2                !
 ! D58   D(25,12,13,26)         -0.0645         estimate D2E/DX2                !
 ! D59   D(12,13,14,9)          -0.3867         estimate D2E/DX2                !
 ! D60   D(12,13,14,15)        179.2542         estimate D2E/DX2                !
 ! D61   D(26,13,14,9)        -179.9418         estimate D2E/DX2                !
 ! D62   D(26,13,14,15)         -0.3008         estimate D2E/DX2                !
 ! D63   D(9,14,15,7)            0.6261         estimate D2E/DX2                !
 ! D64   D(13,14,15,7)        -179.0461         estimate D2E/DX2                !
 ! D65   D(6,16,17,3)           -1.4883         estimate D2E/DX2                !
 ! D66   D(27,16,17,3)         179.4772         estimate D2E/DX2                !
 --------------------------------------------------------------------------------
 Trust Radius=3.00D-01 FncErr=1.00D-07 GrdErr=1.00D-06 EigMax=2.50D+02 EigMin=1.00D-04
 Number of steps in this run=    152 maximum allowed number of steps=    162.
 GradGradGradGradGradGradGradGradGradGradGradGradGradGradGradGradGradGrad

 Leave Link  103 at Fri Oct  4 16:09:37 2024, MaxMem=  2097152000 cpu:               0.3 elap:               0.0
 (Enter /uufs/chpc.utah.edu/sys/installdir/gaussian16/C01/AVX/g16/l202.exe)
                          Input orientation:                          
 ---------------------------------------------------------------------
 Center     Atomic      Atomic             Coordinates (Angstroms)
 Number     Number       Type             X           Y           Z
 ---------------------------------------------------------------------
      1          9           0        3.086330   -0.996010   -1.345530
      2         16           0        2.932730   -0.012770   -0.109350
      3          6           0        3.277860    1.629310   -0.700670
      4          6           0        2.670150    2.726460   -0.113170
      5          6           0        2.849530    3.966620   -0.727070
      6          6           0        3.608640    4.075980   -1.902750
      7          6           0        3.703880    5.358600   -2.620100
      8          6           0        3.637970    6.648680   -2.125820
      9          6           0        3.663490    7.662020   -3.146070
     10          6           0        3.586720    9.072090   -3.050940
     11          6           0        3.619550    9.863110   -4.204950
     12          6           0        3.732780    9.272290   -5.456660
     13          6           0        3.813090    7.885310   -5.579610
     14          6           0        3.773030    7.094430   -4.414800
     15         16           0        3.837770    5.383140   -4.330160
     16          6           0        4.204080    2.900500   -2.374120
     17          7           0        4.050110    1.674680   -1.814980
     18          8           0        1.525350   -0.066750    0.246690
     19          8           0        3.969310   -0.383580    0.834380
     20          1           0        2.045490    2.622580    0.768190
     21          1           0        2.351180    4.835970   -0.303390
     22          1           0        3.553020    6.878750   -1.070450
     23          1           0        3.493720    9.548380   -2.077710
     24          1           0        3.553400   10.944950   -4.120040
     25          1           0        3.756410    9.893420   -6.349220
     26          1           0        3.897810    7.423780   -6.559550
     27          1           0        4.836160    2.899790   -3.259650
 ---------------------------------------------------------------------
                    Distance matrix (angstroms):
                    1          2          3          4          5
     1  F    0.000000
     2  S    1.586977   0.000000
     3  C    2.710135   1.779101   0.000000
     4  C    3.943184   2.751789   1.384993   0.000000
     5  C    5.006622   4.027908   2.376380   1.395366   0.000000
     6  C    5.129170   4.515641   2.746016   2.429931   1.403720
     7  C    6.510527   5.979143   4.215840   3.779081   2.500217
     8  C    7.704184   6.995601   5.230182   4.513452   3.125953
     9  C    8.862084   8.286017   6.520911   5.877496   4.491110
    10  C   10.223769   9.571590   7.811155   7.052490   5.657707
    11  C   11.241935  10.713481   8.955009   8.281050   6.888917
    12  C   11.079588  10.744587   9.013409   8.516452   7.162352
    13  C    9.865772   9.647717   7.951608   7.602763   6.311238
    14  C    8.680276   8.351964   6.626273   6.228927   4.922946
    15  S    7.082813   6.910150   5.251470   5.119013   3.995673
    16  C    4.182123   3.902904   2.296572   2.737723   2.384154
    17  N    2.877819   2.646734   1.356508   2.430368   2.806765
    18  O    2.415646   1.452720   2.616372   3.040080   4.355426
    19  O    2.430377   1.450043   2.624158   3.501145   4.755657
    20  H    4.318027   2.915877   2.159368   1.085259   2.165347
    21  H    5.969798   4.887344   3.361434   2.141952   1.087946
    22  H    7.893371   6.985809   5.269637   4.351707   3.015511
    23  H   10.577628   9.777768   8.040802   7.146767   5.778863
    24  H   12.267950  11.685140   9.927193   9.185789   7.791326
    25  H   12.002733  11.736568  10.021509   9.562092   8.219365
    26  H    9.936668   9.891346   8.263576   8.070178   6.860661
    27  H    4.680066   4.693660   3.254350   3.823870   3.390986
                    6          7          8          9         10
     6  C    0.000000
     7  C    1.472676   0.000000
     8  C    2.582519   1.383099   0.000000
     9  C    3.795858   2.363053   1.438200   0.000000
    10  C    5.126396   3.740235   2.594492   1.415359   0.000000
    11  C    6.228252   4.775926   3.828274   2.442940   1.399475
    12  C    6.296612   4.833619   4.241086   2.817197   2.418450
    13  C    5.298311   3.892928   3.672681   2.448337   2.802474
    14  C    3.930453   2.497766   2.335886   1.394214   2.409557
    15  S    2.766494   1.715469   2.549633   2.574051   3.912516
    16  C    1.399461   2.520508   3.798814   4.853887   6.239210
    17  N    2.443121   3.786735   5.000716   6.145691   7.514253
    18  O    5.111008   6.511444   7.428928   8.707258   9.931868
    19  O    5.244963   6.706453   7.637097   8.981603  10.229945
    20  H    3.419025   4.660104   5.207760   6.582956   7.652276
    21  H    2.171806   2.733146   2.874543   4.217765   5.198106
    22  H    2.924267   2.176012   1.083492   2.221242   2.955371
    23  H    5.476402   4.229966   2.903684   2.174527   1.087510
    24  H    7.218184   5.786171   4.737299   3.426130   2.156778
    25  H    7.323629   5.871430   5.327239   3.904862   3.403238
    26  H    5.742575   4.452173   4.508465   3.429797   3.888965
    27  H    2.175180   2.781516   4.095779   4.905802   6.300948
                   11         12         13         14         15
    11  C    0.000000
    12  C    1.388765   0.000000
    13  C    2.416369   1.394733   0.000000
    14  C    2.780860   2.414574   1.408502   0.000000
    15  S    4.487029   4.050372   2.796889   1.714605   0.000000
    16  C    7.222988   7.093933   5.939391   4.683933   3.181788
    17  N    8.540944   8.431264   7.266398   6.017435   4.485966
    18  O   11.081737  11.163271  10.120019   8.835386   7.483057
    19  O   11.424178  11.526880  10.466051   9.138547   7.742405
    20  H    8.923848   9.263603   8.432989   7.060115   6.068454
    21  H    6.488688   6.938728   6.266909   4.901631   4.327149
    22  H    4.328501   5.000019   4.627453   3.358511   3.597727
    23  H    2.154075   3.398629   3.889872   3.400276   4.747750
    24  H    1.087181   2.148609   3.399879   3.868026   5.573038
    25  H    2.148847   1.087669   2.151283   3.402441   4.942251
    26  H    3.401750   2.158840   1.086494   2.173475   3.022912
    27  H    7.131729   6.830304   5.593237   4.478797   2.882673
                   16         17         18         19         20
    16  C    0.000000
    17  N    1.356090   0.000000
    18  O    4.780043   3.695602   0.000000
    19  O    4.597257   3.355901   2.533516   0.000000
    20  H    3.822416   3.404377   2.788369   3.569659   0.000000
    21  H    3.386326   3.894229   5.002124   5.581807   2.478069
    22  H    4.236733   5.280508   7.354337   7.519515   4.875267
    23  H    6.692292   7.897705  10.086032  10.360998   7.626482
    24  H    8.257409   9.565455  12.018272  12.371534   9.768850
    25  H    8.056225   9.391128  12.152722  12.540581  10.317455
    26  H    6.170226   7.455621  10.395264  10.753148   8.954238
    27  H    1.087975   2.050815   5.661823   5.319119   4.907971
                   21         22         23         24         25
    21  H    0.000000
    22  H    2.491134   0.000000
    23  H    5.163373   2.853947   0.000000
    24  H    7.302862   5.082714   2.474890   0.000000
    25  H    8.006531   6.082353   4.293467   2.473090   0.000000
    26  H    6.944664   5.526858   4.976354   4.297495   2.482610
    27  H    4.320115   4.719234   6.884975   8.192090   7.721539
                   26         27
    26  H    0.000000
    27  H    5.677704   0.000000
 Stoichiometry    C13H8FNO2S2
 Framework group  C1[X(C13H8FNO2S2)]
 Deg. of freedom    75
 Full point group                 C1      NOp   1
 Largest Abelian subgroup         C1      NOp   1
 Largest concise Abelian subgroup C1      NOp   1
                         Standard orientation:                         
 ---------------------------------------------------------------------
 Center     Atomic      Atomic             Coordinates (Angstroms)
 Number     Number       Type             X           Y           Z
 ---------------------------------------------------------------------
      1          9           0        4.908713   -1.480173    0.326031
      2         16           0        4.598385    0.060773    0.107678
      3          6           0        2.843630    0.210659   -0.144453
      4          6           0        2.177724    1.362864    0.239210
      5          6           0        0.784067    1.353458    0.170809
      6          6           0        0.100028    0.205686   -0.259473
      7          6           0       -1.371041    0.148232   -0.221652
      8          6           0       -2.293681    1.171234   -0.344796
      9          6           0       -3.654898    0.750470   -0.148674
     10          6           0       -4.862179    1.489063   -0.162608
     11          6           0       -6.085816    0.851470    0.071312
     12          6           0       -6.128756   -0.515060    0.315071
     13          6           0       -4.954774   -1.267899    0.331813
     14          6           0       -3.725852   -0.619180    0.102042
     15         16           0       -2.168861   -1.337221    0.094177
     16          6           0        0.888653   -0.879519   -0.658085
     17          7           0        2.243006   -0.916880   -0.600548
     18          8           0        4.917940    0.696092    1.374426
     19          8           0        5.268420    0.438686   -1.121492
     20          1           0        2.714453    2.227426    0.616360
     21          1           0        0.239038    2.234889    0.501944
     22          1           0       -2.019535    2.199496   -0.548457
     23          1           0       -4.843464    2.560472   -0.348108
     24          1           0       -7.006157    1.430166    0.064503
     25          1           0       -7.083331   -1.003540    0.497276
     26          1           0       -4.988979   -2.336281    0.526387
     27          1           0        0.442626   -1.796831   -1.036619
 ---------------------------------------------------------------------
 Rotational constants (GHZ):           1.3715497           0.1129638           0.1076269
 Leave Link  202 at Fri Oct  4 16:09:37 2024, MaxMem=  2097152000 cpu:               0.1 elap:               0.0
 (Enter /uufs/chpc.utah.edu/sys/installdir/gaussian16/C01/AVX/g16/l301.exe)
 Standard basis: 6-31G(d) (6D, 7F)
 Ernie: Thresh=  0.10000D-02 Tol=  0.10000D-05 Strict=F.
 There are   309 symmetry adapted cartesian basis functions of A   symmetry.
 There are   309 symmetry adapted basis functions of A   symmetry.
   309 basis functions,   612 primitive gaussians,   309 cartesian basis functions
    75 alpha electrons       75 beta electrons
       nuclear repulsion energy      1561.5022412045 Hartrees.
 IExCor= 3731 DFT=T Ex+Corr=APFD ExCW=0 ScaHFX=  0.229450
 ScaDFX=  1.000000  1.000000  1.000000  1.000000 ScalE2=  1.000000  1.000000
 IRadAn=      5 IRanWt=     -1 IRanGd=            0 ICorTp=0 IEmpDi=211
 NAtoms=   27 NActive=   27 NUniq=   27 SFac= 1.00D+00 NAtFMM=   60 NAOKFM=F Big=F
 Integral buffers will be    131072 words long.
 Raffenetti 2 integral format.
 Two-electron integral symmetry is turned on.
 R6APFD:  NTU= -4 IXU= 1 FactS= 1.050
 R6Disp:  Petersson-Frisch Dispersion energy=       -0.0231814991 Hartrees.
 Nuclear repulsion after empirical dispersion term =     1561.4790597054 Hartrees.
 Leave Link  301 at Fri Oct  4 16:09:37 2024, MaxMem=  2097152000 cpu:               0.9 elap:               0.1
 (Enter /uufs/chpc.utah.edu/sys/installdir/gaussian16/C01/AVX/g16/l302.exe)
 NPDir=0 NMtPBC=     1 NCelOv=     1 NCel=       1 NClECP=     1 NCelD=      1
         NCelK=      1 NCelE2=     1 NClLst=     1 CellRange=     0.0.
 One-electron integrals computed using PRISM.
 One-electron integral symmetry used in STVInt
 NBasis=   309 RedAO= T EigKep=  4.29D-04  NBF=   309
 NBsUse=   309 1.00D-06 EigRej= -1.00D+00 NBFU=   309
 Precomputing XC quadrature grid using
 IXCGrd= 4 IRadAn=           5 IRanWt=          -1 IRanGd=           0 AccXCQ= 0.00D+00.
 Generated NRdTot=       0 NPtTot=           0 NUsed=           0 NTot=          32
 NSgBfM=   303   303   303   303   303 MxSgAt=    27 MxSgA2=    27.
 Leave Link  302 at Fri Oct  4 16:09:37 2024, MaxMem=  2097152000 cpu:               4.5 elap:               0.3
 (Enter /uufs/chpc.utah.edu/sys/installdir/gaussian16/C01/AVX/g16/l303.exe)
 DipDrv:  MaxL=1.
 Leave Link  303 at Fri Oct  4 16:09:37 2024, MaxMem=  2097152000 cpu:               0.9 elap:               0.1
 (Enter /uufs/chpc.utah.edu/sys/installdir/gaussian16/C01/AVX/g16/l401.exe)
 ExpMin= 1.17D-01 ExpMax= 2.19D+04 ExpMxC= 3.30D+03 IAcc=3 IRadAn=         5 AccDes= 0.00D+00
 Harris functional with IExCor= 3731 and IRadAn=       5 diagonalized for initial guess.
 HarFok:  IExCor= 3731 AccDes= 0.00D+00 IRadAn=         5 IDoV= 1 UseB2=F ITyADJ=14
 ICtDFT=  3500011 ScaDFX=  1.000000  1.000000  1.000000  1.000000
 FoFCou: FMM=F IPFlag=           0 FMFlag=      100000 FMFlg1=           0
         NFxFlg=           0 DoJE=T BraDBF=F KetDBF=T FulRan=T
         wScrn=  0.000000 ICntrl=       500 IOpCl=  0 I1Cent=   200000004 NGrid=           0
         NMat0=    1 NMatS0=      1 NMatT0=    0 NMatD0=    1 NMtDS0=    0 NMtDT0=    0
 Petite list used in FoFCou.
 Harris En= -1565.91800556155    
 JPrj=0 DoOrth=F DoCkMO=F.
 Leave Link  401 at Fri Oct  4 16:09:39 2024, MaxMem=  2097152000 cpu:              19.3 elap:               1.2
 (Enter /uufs/chpc.utah.edu/sys/installdir/gaussian16/C01/AVX/g16/l502.exe)
 Integral symmetry usage will be decided dynamically.
 Closed shell SCF:
 Using DIIS extrapolation, IDIIS=  1040.
 NGot=  2097152000 LenX=  2096952213 LenY=  2096856291
 Requested convergence on RMS density matrix=1.00D-08 within 128 cycles.
 Requested convergence on MAX density matrix=1.00D-06.
 Requested convergence on             energy=1.00D-06.
 No special actions if energy rises.
 Fock matrices will be formed incrementally for  20 cycles.
 Integral accuracy reduced to 1.0D-05 until final iterations.

 Cycle   1  Pass 0  IDiag  1:
 FoFJK:  IHMeth= 1 ICntrl=       0 DoSepK=F KAlg= 0 I1Cent=           0 FoldK=F
 IRaf= 720000000 NMat=       1 IRICut=       1 DoRegI=T DoRafI=F ISym2E= 0 IDoP0=0 IntGTp=1.
 FoFCou: FMM=F IPFlag=           0 FMFlag=      100000 FMFlg1=           0
         NFxFlg=           0 DoJE=F BraDBF=F KetDBF=F FulRan=T
         wScrn=  0.000000 ICntrl=         0 IOpCl=  0 I1Cent=           0 NGrid=           0
         NMat0=    1 NMatS0=      1 NMatT0=    0 NMatD0=    1 NMtDS0=    0 NMtDT0=    0
 Symmetry not used in FoFCou.
 E= -1600.17475118014    
 DIIS: error= 8.18D-02 at cycle   1 NSaved=   1.
 NSaved= 1 IEnMin= 1 EnMin= -1600.17475118014     IErMin= 1 ErrMin= 8.18D-02
 ErrMax= 8.18D-02  0.00D+00 EMaxC= 1.00D-01 BMatC= 1.38D+00 BMatP= 1.38D+00
 IDIUse=3 WtCom= 1.82D-01 WtEn= 8.18D-01
 Coeff-Com:  0.100D+01
 Coeff-En:   0.100D+01
 Coeff:      0.100D+01
 Gap=     0.226 Goal=   None    Shift=    0.000
 GapD=    0.226 DampG=1.000 DampE=0.500 DampFc=0.5000 IDamp=-1.
 Damping current iteration by 5.00D-01
 RMSDP=7.81D-03 MaxDP=6.53D-01              OVMax= 5.80D-01

 Cycle   2  Pass 0  IDiag  1:
 RMSU=  3.90D-03    CP:  1.00D+00
 E= -1600.22486569870     Delta-E=       -0.050114518560 Rises=F Damp=T
 DIIS: error= 3.09D-02 at cycle   2 NSaved=   2.
 NSaved= 2 IEnMin= 2 EnMin= -1600.22486569870     IErMin= 2 ErrMin= 3.09D-02
 ErrMax= 3.09D-02  0.00D+00 EMaxC= 1.00D-01 BMatC= 2.87D-01 BMatP= 1.38D+00
 IDIUse=3 WtCom= 6.91D-01 WtEn= 3.09D-01
 Coeff-Com: -0.279D-01 0.103D+01
 Coeff-En:   0.450D+00 0.550D+00
 Coeff:      0.120D+00 0.880D+00
 Gap=     0.157 Goal=   None    Shift=    0.000
 RMSDP=3.36D-03 MaxDP=1.36D-01 DE=-5.01D-02 OVMax= 4.87D-01

 Cycle   3  Pass 0  IDiag  1:
 RMSU=  2.76D-03    CP:  1.01D+00  5.11D-01
 E= -1600.49747587829     Delta-E=       -0.272610179595 Rises=F Damp=F
 DIIS: error= 1.75D-02 at cycle   3 NSaved=   3.
 NSaved= 3 IEnMin= 3 EnMin= -1600.49747587829     IErMin= 3 ErrMin= 1.75D-02
 ErrMax= 1.75D-02  0.00D+00 EMaxC= 1.00D-01 BMatC= 2.09D-01 BMatP= 2.87D-01
 IDIUse=3 WtCom= 8.25D-01 WtEn= 1.75D-01
 Coeff-Com: -0.186D+00 0.570D+00 0.617D+00
 Coeff-En:   0.000D+00 0.172D+00 0.828D+00
 Coeff:     -0.154D+00 0.500D+00 0.654D+00
 Gap=     0.275 Goal=   None    Shift=    0.000
 RMSDP=2.27D-03 MaxDP=6.50D-02 DE=-2.73D-01 OVMax= 1.66D-01

 Cycle   4  Pass 0  IDiag  1:
 RMSU=  1.63D-03    CP:  1.01D+00  7.52D-01  5.43D-01
 E= -1600.65775690038     Delta-E=       -0.160281022091 Rises=F Damp=F
 DIIS: error= 9.24D-03 at cycle   4 NSaved=   4.
 NSaved= 4 IEnMin= 4 EnMin= -1600.65775690038     IErMin= 4 ErrMin= 9.24D-03
 ErrMax= 9.24D-03  0.00D+00 EMaxC= 1.00D-01 BMatC= 5.44D-02 BMatP= 2.09D-01
 IDIUse=3 WtCom= 9.08D-01 WtEn= 9.24D-02
 Coeff-Com: -0.978D-01 0.237D+00 0.412D+00 0.449D+00
 Coeff-En:   0.000D+00 0.000D+00 0.209D+00 0.791D+00
 Coeff:     -0.888D-01 0.216D+00 0.393D+00 0.480D+00
 Gap=     0.152 Goal=   None    Shift=    0.000
 RMSDP=9.37D-04 MaxDP=3.47D-02 DE=-1.60D-01 OVMax= 6.67D-02

 Cycle   5  Pass 0  IDiag  1:
 RMSU=  5.72D-04    CP:  1.01D+00  7.29D-01  6.88D-01  6.21D-01
 E= -1600.70619283293     Delta-E=       -0.048435932547 Rises=F Damp=F
 DIIS: error= 3.12D-03 at cycle   5 NSaved=   5.
 NSaved= 5 IEnMin= 5 EnMin= -1600.70619283293     IErMin= 5 ErrMin= 3.12D-03
 ErrMax= 3.12D-03  0.00D+00 EMaxC= 1.00D-01 BMatC= 3.14D-03 BMatP= 5.44D-02
 IDIUse=3 WtCom= 9.69D-01 WtEn= 3.12D-02
 Coeff-Com: -0.314D-01 0.661D-01 0.131D+00 0.245D+00 0.590D+00
 Coeff-En:   0.000D+00 0.000D+00 0.000D+00 0.160D-03 0.100D+01
 Coeff:     -0.304D-01 0.640D-01 0.127D+00 0.237D+00 0.602D+00
 Gap=     0.152 Goal=   None    Shift=    0.000
 RMSDP=2.83D-04 MaxDP=8.97D-03 DE=-4.84D-02 OVMax= 2.08D-02

 Cycle   6  Pass 0  IDiag  1:
 RMSU=  2.10D-04    CP:  1.01D+00  7.37D-01  6.75D-01  6.93D-01  7.55D-01
 E= -1600.70849752680     Delta-E=       -0.002304693872 Rises=F Damp=F
 DIIS: error= 1.61D-03 at cycle   6 NSaved=   6.
 NSaved= 6 IEnMin= 6 EnMin= -1600.70849752680     IErMin= 6 ErrMin= 1.61D-03
 ErrMax= 1.61D-03  0.00D+00 EMaxC= 1.00D-01 BMatC= 8.70D-04 BMatP= 3.14D-03
 IDIUse=3 WtCom= 9.84D-01 WtEn= 1.61D-02
 Coeff-Com: -0.408D-02 0.562D-02 0.114D-01 0.694D-01 0.399D+00 0.518D+00
 Coeff-En:   0.000D+00 0.000D+00 0.000D+00 0.000D+00 0.249D+00 0.751D+00
 Coeff:     -0.401D-02 0.553D-02 0.112D-01 0.683D-01 0.397D+00 0.522D+00
 Gap=     0.152 Goal=   None    Shift=    0.000
 RMSDP=1.35D-04 MaxDP=6.59D-03 DE=-2.30D-03 OVMax= 1.25D-02

 Cycle   7  Pass 0  IDiag  1:
 RMSU=  6.60D-05    CP:  1.01D+00  7.38D-01  6.79D-01  6.85D-01  8.51D-01
                    CP:  5.10D-01
 E= -1600.70937949371     Delta-E=       -0.000881966903 Rises=F Damp=F
 DIIS: error= 4.25D-04 at cycle   7 NSaved=   7.
 NSaved= 7 IEnMin= 7 EnMin= -1600.70937949371     IErMin= 7 ErrMin= 4.25D-04
 ErrMax= 4.25D-04  0.00D+00 EMaxC= 1.00D-01 BMatC= 7.69D-05 BMatP= 8.70D-04
 IDIUse=3 WtCom= 9.96D-01 WtEn= 4.25D-03
 Coeff-Com:  0.806D-03-0.259D-02-0.449D-02 0.169D-01 0.166D+00 0.312D+00
 Coeff-Com:  0.511D+00
 Coeff-En:   0.000D+00 0.000D+00 0.000D+00 0.000D+00 0.000D+00 0.415D-01
 Coeff-En:   0.958D+00
 Coeff:      0.802D-03-0.258D-02-0.447D-02 0.168D-01 0.166D+00 0.311D+00
 Coeff:      0.513D+00
 Gap=     0.152 Goal=   None    Shift=    0.000
 RMSDP=3.60D-05 MaxDP=1.68D-03 DE=-8.82D-04 OVMax= 2.07D-03

 Cycle   8  Pass 0  IDiag  1:
 RMSU=  1.93D-05    CP:  1.01D+00  7.36D-01  6.77D-01  6.86D-01  8.51D-01
                    CP:  5.89D-01  6.27D-01
 E= -1600.70945614632     Delta-E=       -0.000076652611 Rises=F Damp=F
 DIIS: error= 1.52D-04 at cycle   8 NSaved=   8.
 NSaved= 8 IEnMin= 8 EnMin= -1600.70945614632     IErMin= 8 ErrMin= 1.52D-04
 ErrMax= 1.52D-04  0.00D+00 EMaxC= 1.00D-01 BMatC= 5.14D-06 BMatP= 7.69D-05
 IDIUse=3 WtCom= 9.98D-01 WtEn= 1.52D-03
 Coeff-Com:  0.934D-03-0.207D-02-0.282D-02 0.348D-02 0.493D-01 0.121D+00
 Coeff-Com:  0.269D+00 0.561D+00
 Coeff-En:   0.000D+00 0.000D+00 0.000D+00 0.000D+00 0.000D+00 0.000D+00
 Coeff-En:   0.000D+00 0.100D+01
 Coeff:      0.932D-03-0.206D-02-0.282D-02 0.347D-02 0.492D-01 0.121D+00
 Coeff:      0.269D+00 0.562D+00
 Gap=     0.152 Goal=   None    Shift=    0.000
 RMSDP=1.05D-05 MaxDP=3.22D-04 DE=-7.67D-05 OVMax= 8.76D-04

 Cycle   9  Pass 0  IDiag  1:
 RMSU=  8.47D-06    CP:  1.01D+00  7.36D-01  6.77D-01  6.86D-01  8.50D-01
                    CP:  5.91D-01  6.61D-01  7.14D-01
 E= -1600.70946075886     Delta-E=       -0.000004612547 Rises=F Damp=F
 DIIS: error= 5.50D-05 at cycle   9 NSaved=   9.
 NSaved= 9 IEnMin= 9 EnMin= -1600.70946075886     IErMin= 9 ErrMin= 5.50D-05
 ErrMax= 5.50D-05  0.00D+00 EMaxC= 1.00D-01 BMatC= 8.36D-07 BMatP= 5.14D-06
 IDIUse=1 WtCom= 1.00D+00 WtEn= 0.00D+00
 Coeff-Com:  0.415D-03-0.833D-03-0.537D-03 0.484D-03 0.618D-02 0.282D-01
 Coeff-Com:  0.817D-01 0.323D+00 0.562D+00
 Coeff:      0.415D-03-0.833D-03-0.537D-03 0.484D-03 0.618D-02 0.282D-01
 Coeff:      0.817D-01 0.323D+00 0.562D+00
 Gap=     0.152 Goal=   None    Shift=    0.000
 RMSDP=4.73D-06 MaxDP=1.42D-04 DE=-4.61D-06 OVMax= 2.98D-04

 Initial convergence to 1.0D-05 achieved.  Increase integral accuracy.
 Cycle  10  Pass 1  IDiag  1:
 E= -1600.70948661356     Delta-E=       -0.000025854697 Rises=F Damp=F
 DIIS: error= 4.97D-05 at cycle   1 NSaved=   1.
 NSaved= 1 IEnMin= 1 EnMin= -1600.70948661356     IErMin= 1 ErrMin= 4.97D-05
 ErrMax= 4.97D-05  0.00D+00 EMaxC= 1.00D-01 BMatC= 4.42D-07 BMatP= 4.42D-07
 IDIUse=1 WtCom= 1.00D+00 WtEn= 0.00D+00
 Coeff-Com:  0.100D+01
 Coeff:      0.100D+01
 Gap=     0.152 Goal=   None    Shift=    0.000
 RMSDP=4.73D-06 MaxDP=1.42D-04 DE=-2.59D-05 OVMax= 2.18D-04

 Cycle  11  Pass 1  IDiag  1:
 RMSU=  2.71D-05    CP:  1.00D+00
 E= -1600.70948670511     Delta-E=       -0.000000091553 Rises=F Damp=F
 DIIS: error= 3.06D-05 at cycle   2 NSaved=   2.
 NSaved= 2 IEnMin= 2 EnMin= -1600.70948670511     IErMin= 2 ErrMin= 3.06D-05
 ErrMax= 3.06D-05  0.00D+00 EMaxC= 1.00D-01 BMatC= 3.17D-07 BMatP= 4.42D-07
 IDIUse=1 WtCom= 1.00D+00 WtEn= 0.00D+00
 Coeff-Com:  0.443D+00 0.557D+00
 Coeff:      0.443D+00 0.557D+00
 Gap=     0.152 Goal=   None    Shift=    0.000
 RMSDP=3.29D-06 MaxDP=1.69D-04 DE=-9.16D-08 OVMax= 2.35D-04

 Cycle  12  Pass 1  IDiag  1:
 RMSU=  3.29D-06    CP:  1.00D+00  9.97D-01
 E= -1600.70948689096     Delta-E=       -0.000000185843 Rises=F Damp=F
 DIIS: error= 2.18D-05 at cycle   3 NSaved=   3.
 NSaved= 3 IEnMin= 3 EnMin= -1600.70948689096     IErMin= 3 ErrMin= 2.18D-05
 ErrMax= 2.18D-05  0.00D+00 EMaxC= 1.00D-01 BMatC= 1.25D-07 BMatP= 3.17D-07
 IDIUse=1 WtCom= 1.00D+00 WtEn= 0.00D+00
 Coeff-Com:  0.136D-01 0.383D+00 0.603D+00
 Coeff:      0.136D-01 0.383D+00 0.603D+00
 Gap=     0.152 Goal=   None    Shift=    0.000
 RMSDP=1.41D-06 MaxDP=4.72D-05 DE=-1.86D-07 OVMax= 1.20D-04

 Cycle  13  Pass 1  IDiag  1:
 RMSU=  4.73D-07    CP:  1.00D+00  1.01D+00  6.06D-01
 E= -1600.70948701308     Delta-E=       -0.000000122129 Rises=F Damp=F
 DIIS: error= 3.06D-06 at cycle   4 NSaved=   4.
 NSaved= 4 IEnMin= 4 EnMin= -1600.70948701308     IErMin= 4 ErrMin= 3.06D-06
 ErrMax= 3.06D-06  0.00D+00 EMaxC= 1.00D-01 BMatC= 5.30D-09 BMatP= 1.25D-07
 IDIUse=1 WtCom= 1.00D+00 WtEn= 0.00D+00
 Coeff-Com: -0.369D-02 0.215D+00 0.363D+00 0.425D+00
 Coeff:     -0.369D-02 0.215D+00 0.363D+00 0.425D+00
 Gap=     0.152 Goal=   None    Shift=    0.000
 RMSDP=2.68D-07 MaxDP=1.60D-05 DE=-1.22D-07 OVMax= 2.35D-05

 Cycle  14  Pass 1  IDiag  1:
 RMSU=  1.10D-07    CP:  1.00D+00  1.01D+00  6.27D-01  5.05D-01
 E= -1600.70948701825     Delta-E=       -0.000000005167 Rises=F Damp=F
 DIIS: error= 5.18D-07 at cycle   5 NSaved=   5.
 NSaved= 5 IEnMin= 5 EnMin= -1600.70948701825     IErMin= 5 ErrMin= 5.18D-07
 ErrMax= 5.18D-07  0.00D+00 EMaxC= 1.00D-01 BMatC= 1.68D-10 BMatP= 5.30D-09
 IDIUse=1 WtCom= 1.00D+00 WtEn= 0.00D+00
 Coeff-Com: -0.255D-02 0.115D+00 0.197D+00 0.251D+00 0.439D+00
 Coeff:     -0.255D-02 0.115D+00 0.197D+00 0.251D+00 0.439D+00
 Gap=     0.152 Goal=   None    Shift=    0.000
 RMSDP=5.83D-08 MaxDP=2.46D-06 DE=-5.17D-09 OVMax= 6.51D-06

 Cycle  15  Pass 1  IDiag  1:
 RMSU=  4.24D-08    CP:  1.00D+00  1.01D+00  6.25D-01  5.07D-01  6.42D-01
 E= -1600.70948701842     Delta-E=       -0.000000000169 Rises=F Damp=F
 DIIS: error= 1.31D-07 at cycle   6 NSaved=   6.
 NSaved= 6 IEnMin= 6 EnMin= -1600.70948701842     IErMin= 6 ErrMin= 1.31D-07
 ErrMax= 1.31D-07  0.00D+00 EMaxC= 1.00D-01 BMatC= 1.11D-11 BMatP= 1.68D-10
 IDIUse=1 WtCom= 1.00D+00 WtEn= 0.00D+00
 Coeff-Com: -0.101D-02 0.405D-01 0.702D-01 0.894D-01 0.244D+00 0.557D+00
 Coeff:     -0.101D-02 0.405D-01 0.702D-01 0.894D-01 0.244D+00 0.557D+00
 Gap=     0.152 Goal=   None    Shift=    0.000
 RMSDP=1.61D-08 MaxDP=4.24D-07 DE=-1.69D-10 OVMax= 1.19D-06

 Cycle  16  Pass 1  IDiag  1:
 RMSU=  1.25D-08    CP:  1.00D+00  1.01D+00  6.26D-01  5.03D-01  7.07D-01
                    CP:  8.53D-01
 E= -1600.70948701842     Delta-E=       -0.000000000002 Rises=F Damp=F
 DIIS: error= 5.29D-08 at cycle   7 NSaved=   7.
 NSaved= 7 IEnMin= 7 EnMin= -1600.70948701842     IErMin= 7 ErrMin= 5.29D-08
 ErrMax= 5.29D-08  0.00D+00 EMaxC= 1.00D-01 BMatC= 1.36D-12 BMatP= 1.11D-11
 IDIUse=1 WtCom= 1.00D+00 WtEn= 0.00D+00
 Coeff-Com:  0.862D-05-0.327D-02-0.490D-02-0.737D-02 0.437D-01 0.283D+00
 Coeff-Com:  0.689D+00
 Coeff:      0.862D-05-0.327D-02-0.490D-02-0.737D-02 0.437D-01 0.283D+00
 Coeff:      0.689D+00
 Gap=     0.152 Goal=   None    Shift=    0.000
 RMSDP=5.69D-09 MaxDP=1.90D-07 DE=-1.82D-12 OVMax= 5.44D-07

 SCF Done:  E(RAPFD) =  -1600.70948702     A.U. after   16 cycles
            NFock= 16  Conv=0.57D-08     -V/T= 2.0060
 KE= 1.591085572975D+03 PE=-6.889304114934D+03 EE= 2.136029995236D+03
 Leave Link  502 at Fri Oct  4 16:10:06 2024, MaxMem=  2097152000 cpu:             424.7 elap:              26.7
 (Enter /uufs/chpc.utah.edu/sys/installdir/gaussian16/C01/AVX/g16/l601.exe)
 Copying SCF densities to generalized density rwf, IOpCl= 0 IROHF=0.

 **********************************************************************

            Population analysis using the SCF Density.

 **********************************************************************

 Orbital symmetries:
       Occupied  (A) (A) (A) (A) (A) (A) (A) (A) (A) (A) (A) (A)
                 (A) (A) (A) (A) (A) (A) (A) (A) (A) (A) (A) (A)
                 (A) (A) (A) (A) (A) (A) (A) (A) (A) (A) (A) (A)
                 (A) (A) (A) (A) (A) (A) (A) (A) (A) (A) (A) (A)
                 (A) (A) (A) (A) (A) (A) (A) (A) (A) (A) (A) (A)
                 (A) (A) (A) (A) (A) (A) (A) (A) (A) (A) (A) (A)
                 (A) (A) (A)
       Virtual   (A) (A) (A) (A) (A) (A) (A) (A) (A) (A) (A) (A)
                 (A) (A) (A) (A) (A) (A) (A) (A) (A) (A) (A) (A)
                 (A) (A) (A) (A) (A) (A) (A) (A) (A) (A) (A) (A)
                 (A) (A) (A) (A) (A) (A) (A) (A) (A) (A) (A) (A)
                 (A) (A) (A) (A) (A) (A) (A) (A) (A) (A) (A) (A)
                 (A) (A) (A) (A) (A) (A) (A) (A) (A) (A) (A) (A)
                 (A) (A) (A) (A) (A) (A) (A) (A) (A) (A) (A) (A)
                 (A) (A) (A) (A) (A) (A) (A) (A) (A) (A) (A) (A)
                 (A) (A) (A) (A) (A) (A) (A) (A) (A) (A) (A) (A)
                 (A) (A) (A) (A) (A) (A) (A) (A) (A) (A) (A) (A)
                 (A) (A) (A) (A) (A) (A) (A) (A) (A) (A) (A) (A)
                 (A) (A) (A) (A) (A) (A) (A) (A) (A) (A) (A) (A)
                 (A) (A) (A) (A) (A) (A) (A) (A) (A) (A) (A) (A)
                 (A) (A) (A) (A) (A) (A) (A) (A) (A) (A) (A) (A)
                 (A) (A) (A) (A) (A) (A) (A) (A) (A) (A) (A) (A)
                 (A) (A) (A) (A) (A) (A) (A) (A) (A) (A) (A) (A)
                 (A) (A) (A) (A) (A) (A) (A) (A) (A) (A) (A) (A)
                 (A) (A) (A) (A) (A) (A) (A) (A) (A) (A) (A) (A)
                 (A) (A) (A) (A) (A) (A) (A) (A) (A) (A) (A) (A)
                 (A) (A) (A) (A) (A) (A)
 The electronic state is 1-A.
 Alpha  occ. eigenvalues --  -89.23610 -89.00909 -24.79583 -19.21126 -19.21001
 Alpha  occ. eigenvalues --  -14.41741 -10.31424 -10.28761 -10.28144 -10.28110
 Alpha  occ. eigenvalues --  -10.27395 -10.27147 -10.26572 -10.24734 -10.24608
 Alpha  occ. eigenvalues --  -10.24132 -10.23888 -10.23450 -10.23237  -8.21458
 Alpha  occ. eigenvalues --   -8.02654  -6.16419  -6.16023  -6.15960  -5.97353
 Alpha  occ. eigenvalues --   -5.96965  -5.96562  -1.28804  -1.13117  -1.04759
 Alpha  occ. eigenvalues --   -1.00099  -0.94058  -0.88130  -0.85634  -0.83649
 Alpha  occ. eigenvalues --   -0.80148  -0.77254  -0.74412  -0.72830  -0.68843
 Alpha  occ. eigenvalues --   -0.66760  -0.63866  -0.61327  -0.60216  -0.60100
 Alpha  occ. eigenvalues --   -0.55005  -0.53834  -0.52779  -0.52467  -0.51499
 Alpha  occ. eigenvalues --   -0.49831  -0.49152  -0.48089  -0.46011  -0.45588
 Alpha  occ. eigenvalues --   -0.45247  -0.44579  -0.44371  -0.44202  -0.43199
 Alpha  occ. eigenvalues --   -0.41985  -0.39191  -0.38687  -0.37868  -0.37222
 Alpha  occ. eigenvalues --   -0.36038  -0.35259  -0.34902  -0.33213  -0.32796
 Alpha  occ. eigenvalues --   -0.31229  -0.31013  -0.30421  -0.25919  -0.23897
 Alpha virt. eigenvalues --   -0.08659  -0.06078  -0.02902  -0.01498   0.00782
 Alpha virt. eigenvalues --    0.01734   0.03249   0.06571   0.08409   0.09473
 Alpha virt. eigenvalues --    0.10593   0.11197   0.11848   0.12680   0.13963
 Alpha virt. eigenvalues --    0.14518   0.15203   0.16726   0.16948   0.17155
 Alpha virt. eigenvalues --    0.18736   0.20426   0.21271   0.24029   0.24519
 Alpha virt. eigenvalues --    0.25487   0.27553   0.28409   0.30031   0.30735
 Alpha virt. eigenvalues --    0.31306   0.33548   0.34308   0.34903   0.36443
 Alpha virt. eigenvalues --    0.37810   0.39609   0.40920   0.41970   0.43548
 Alpha virt. eigenvalues --    0.44850   0.46755   0.48119   0.50200   0.52199
 Alpha virt. eigenvalues --    0.53253   0.53973   0.54502   0.55508   0.55808
 Alpha virt. eigenvalues --    0.56231   0.56918   0.57522   0.58021   0.58664
 Alpha virt. eigenvalues --    0.59030   0.59751   0.60067   0.60344   0.61039
 Alpha virt. eigenvalues --    0.61466   0.62186   0.63533   0.64610   0.66555
 Alpha virt. eigenvalues --    0.68145   0.70701   0.72401   0.75126   0.75754
 Alpha virt. eigenvalues --    0.77156   0.78237   0.79011   0.80066   0.80295
 Alpha virt. eigenvalues --    0.82262   0.82488   0.83034   0.83109   0.83722
 Alpha virt. eigenvalues --    0.84260   0.85088   0.85934   0.86973   0.87171
 Alpha virt. eigenvalues --    0.87805   0.88997   0.89456   0.90551   0.92438
 Alpha virt. eigenvalues --    0.93253   0.93578   0.94415   0.96257   0.99131
 Alpha virt. eigenvalues --    1.00239   1.01229   1.02360   1.03038   1.04300
 Alpha virt. eigenvalues --    1.04431   1.04872   1.07216   1.08302   1.08391
 Alpha virt. eigenvalues --    1.10253   1.11036   1.13307   1.14365   1.15690
 Alpha virt. eigenvalues --    1.16619   1.20542   1.22241   1.23329   1.24819
 Alpha virt. eigenvalues --    1.25595   1.27667   1.29809   1.31308   1.32527
 Alpha virt. eigenvalues --    1.34783   1.36166   1.36495   1.37464   1.41283
 Alpha virt. eigenvalues --    1.41679   1.42911   1.43632   1.44488   1.44980
 Alpha virt. eigenvalues --    1.46111   1.47138   1.48236   1.49645   1.50238
 Alpha virt. eigenvalues --    1.51156   1.56327   1.58465   1.61696   1.63030
 Alpha virt. eigenvalues --    1.67538   1.71006   1.73667   1.77266   1.77699
 Alpha virt. eigenvalues --    1.77978   1.79014   1.79236   1.80098   1.81499
 Alpha virt. eigenvalues --    1.81939   1.82568   1.82826   1.85213   1.85536
 Alpha virt. eigenvalues --    1.86542   1.87583   1.89278   1.90240   1.91339
 Alpha virt. eigenvalues --    1.93541   1.95723   1.96399   1.98809   1.99877
 Alpha virt. eigenvalues --    2.04956   2.06592   2.07738   2.09318   2.10405
 Alpha virt. eigenvalues --    2.11801   2.12753   2.12986   2.14587   2.15451
 Alpha virt. eigenvalues --    2.16251   2.18642   2.19768   2.22457   2.24069
 Alpha virt. eigenvalues --    2.25111   2.26003   2.27635   2.28213   2.29595
 Alpha virt. eigenvalues --    2.30961   2.33279   2.39831   2.42537   2.43692
 Alpha virt. eigenvalues --    2.45984   2.51257   2.58187   2.58466   2.60418
 Alpha virt. eigenvalues --    2.61207   2.63334   2.63519   2.66530   2.67068
 Alpha virt. eigenvalues --    2.71302   2.72920   2.73503   2.75884   2.78135
 Alpha virt. eigenvalues --    2.81681   2.83489   2.84094   2.91522   2.91795
 Alpha virt. eigenvalues --    2.97127   3.10749   3.13985   3.32347   3.39606
 Alpha virt. eigenvalues --    3.77939   3.84876   3.95981   3.97652   4.05453
 Alpha virt. eigenvalues --    4.08331   4.09207   4.11293   4.13762   4.15301
 Alpha virt. eigenvalues --    4.16606   4.24000   4.28152   4.34351   4.39062
 Alpha virt. eigenvalues --    4.45646   4.53926   4.64595   4.71785
          Condensed to atoms (all electrons):
               1          2          3          4          5          6
     1  F    9.148643   0.218884  -0.031745   0.000704  -0.000014  -0.000003
     2  S    0.218884  13.468036   0.197232  -0.027970   0.001111   0.000140
     3  C   -0.031745   0.197232   5.308761   0.461861  -0.042999  -0.035446
     4  C    0.000704  -0.027970   0.461861   4.993130   0.487809  -0.014394
     5  C   -0.000014   0.001111  -0.042999   0.487809   4.981259   0.538408
     6  C   -0.000003   0.000140  -0.035446  -0.014394   0.538408   4.833966
     7  C    0.000000  -0.000006   0.000675   0.008921  -0.064013   0.314625
     8  C    0.000000   0.000000  -0.000000   0.000150  -0.010242  -0.020227
     9  C   -0.000000   0.000000   0.000000  -0.000006   0.000354   0.004435
    10  C   -0.000000  -0.000000  -0.000000  -0.000000   0.000003  -0.000119
    11  C    0.000000  -0.000000   0.000000   0.000000  -0.000000   0.000001
    12  C   -0.000000   0.000000   0.000000   0.000000  -0.000000   0.000002
    13  C    0.000000  -0.000000   0.000000  -0.000000   0.000000  -0.000104
    14  C    0.000000  -0.000000   0.000000   0.000000  -0.000068   0.004458
    15  S    0.000000   0.000000   0.000022  -0.000200   0.003703  -0.059728
    16  C    0.000142   0.000402  -0.068295  -0.042776  -0.050889   0.433664
    17  N    0.003096  -0.020333   0.343153  -0.024374  -0.043838  -0.008843
    18  O   -0.035953   0.446443  -0.057240   0.003574   0.000409  -0.000005
    19  O   -0.035534   0.465472  -0.052717  -0.001713  -0.000076   0.000003
    20  H    0.000012   0.000136  -0.033960   0.359100  -0.028703   0.003414
    21  H    0.000000  -0.000030   0.005197  -0.041571   0.367812  -0.038067
    22  H    0.000000   0.000000   0.000001   0.000037   0.002166  -0.005113
    23  H   -0.000000   0.000000  -0.000000  -0.000000  -0.000000   0.000003
    24  H    0.000000  -0.000000  -0.000000  -0.000000  -0.000000  -0.000000
    25  H    0.000000   0.000000  -0.000000  -0.000000   0.000000  -0.000000
    26  H    0.000000   0.000000   0.000000  -0.000000   0.000000   0.000001
    27  H    0.000002  -0.000173   0.006358   0.000211   0.003439  -0.062850
               7          8          9         10         11         12
     1  F    0.000000   0.000000  -0.000000  -0.000000   0.000000  -0.000000
     2  S   -0.000006   0.000000   0.000000  -0.000000  -0.000000   0.000000
     3  C    0.000675  -0.000000   0.000000  -0.000000   0.000000   0.000000
     4  C    0.008921   0.000150  -0.000006  -0.000000   0.000000   0.000000
     5  C   -0.064013  -0.010242   0.000354   0.000003  -0.000000  -0.000000
     6  C    0.314625  -0.020227   0.004435  -0.000119   0.000001   0.000002
     7  C    5.329290   0.498711  -0.013090   0.008103  -0.000252   0.000013
     8  C    0.498711   5.130663   0.454826  -0.070000   0.006438  -0.000098
     9  C   -0.013090   0.454826   4.612379   0.495387  -0.012142  -0.032394
    10  C    0.008103  -0.070000   0.495387   5.048259   0.529662  -0.037721
    11  C   -0.000252   0.006438  -0.012142   0.529662   4.899607   0.531828
    12  C    0.000013  -0.000098  -0.032394  -0.037721   0.531828   4.874662
    13  C    0.001117   0.012405  -0.016620  -0.052649  -0.031227   0.548159
    14  C   -0.040458  -0.076621   0.516134  -0.062560  -0.038457  -0.034753
    15  S    0.310943  -0.117552  -0.063166   0.010741   0.000107   0.003442
    16  C   -0.030381   0.004683  -0.000221  -0.000000   0.000000  -0.000000
    17  N    0.005933  -0.000076   0.000000  -0.000000   0.000000  -0.000000
    18  O   -0.000000   0.000000   0.000000   0.000000  -0.000000   0.000000
    19  O   -0.000000  -0.000000   0.000000   0.000000  -0.000000   0.000000
    20  H   -0.000096  -0.000006   0.000000   0.000000  -0.000000  -0.000000
    21  H   -0.008421   0.005082  -0.000000  -0.000004  -0.000000   0.000000
    22  H   -0.048415   0.360078  -0.030245  -0.003210  -0.000018   0.000006
    23  H   -0.000013  -0.006697  -0.038565   0.363106  -0.041335   0.004093
    24  H    0.000003  -0.000128   0.002380  -0.034300   0.366757  -0.037665
    25  H   -0.000000   0.000008   0.000772   0.004004  -0.037696   0.368606
    26  H    0.000040  -0.000226   0.002869   0.000650   0.003821  -0.034809
    27  H   -0.002131  -0.000009   0.000002   0.000000   0.000000  -0.000000
              13         14         15         16         17         18
     1  F    0.000000   0.000000   0.000000   0.000142   0.003096  -0.035953
     2  S   -0.000000  -0.000000   0.000000   0.000402  -0.020333   0.446443
     3  C    0.000000   0.000000   0.000022  -0.068295   0.343153  -0.057240
     4  C   -0.000000   0.000000  -0.000200  -0.042776  -0.024374   0.003574
     5  C    0.000000  -0.000068   0.003703  -0.050889  -0.043838   0.000409
     6  C   -0.000104   0.004458  -0.059728   0.433664  -0.008843  -0.000005
     7  C    0.001117  -0.040458   0.310943  -0.030381   0.005933  -0.000000
     8  C    0.012405  -0.076621  -0.117552   0.004683  -0.000076   0.000000
     9  C   -0.016620   0.516134  -0.063166  -0.000221   0.000000   0.000000
    10  C   -0.052649  -0.062560   0.010741  -0.000000  -0.000000   0.000000
    11  C   -0.031227  -0.038457   0.000107   0.000000   0.000000  -0.000000
    12  C    0.548159  -0.034753   0.003442  -0.000000  -0.000000   0.000000
    13  C    4.980296   0.487822  -0.062751   0.000003   0.000000  -0.000000
    14  C    0.487822   5.158858   0.288530   0.000130  -0.000000   0.000000
    15  S   -0.062751   0.288530  15.359836   0.001194   0.000053   0.000000
    16  C    0.000003   0.000130   0.001194   4.957599   0.426784  -0.000085
    17  N    0.000000  -0.000000   0.000053   0.426784   6.794006   0.000883
    18  O   -0.000000   0.000000   0.000000  -0.000085   0.000883   8.171030
    19  O    0.000000  -0.000000  -0.000000  -0.000143  -0.000665  -0.041946
    20  H    0.000000  -0.000000   0.000004   0.000235   0.003587   0.003437
    21  H   -0.000000   0.000002  -0.000066   0.005008  -0.000114   0.000002
    22  H   -0.000135   0.006253   0.005675   0.000001  -0.000000  -0.000000
    23  H    0.000396   0.005879  -0.000282   0.000000  -0.000000   0.000000
    24  H    0.004233   0.000792   0.000023   0.000000  -0.000000   0.000000
    25  H   -0.038098   0.003701  -0.000127   0.000000   0.000000   0.000000
    26  H    0.367742  -0.040110  -0.001615   0.000000  -0.000000  -0.000000
    27  H    0.000001  -0.000013   0.005761   0.384708  -0.048056   0.000000
              19         20         21         22         23         24
     1  F   -0.035534   0.000012   0.000000   0.000000  -0.000000   0.000000
     2  S    0.465472   0.000136  -0.000030   0.000000   0.000000  -0.000000
     3  C   -0.052717  -0.033960   0.005197   0.000001  -0.000000  -0.000000
     4  C   -0.001713   0.359100  -0.041571   0.000037  -0.000000  -0.000000
     5  C   -0.000076  -0.028703   0.367812   0.002166  -0.000000  -0.000000
     6  C    0.000003   0.003414  -0.038067  -0.005113   0.000003  -0.000000
     7  C   -0.000000  -0.000096  -0.008421  -0.048415  -0.000013   0.000003
     8  C   -0.000000  -0.000006   0.005082   0.360078  -0.006697  -0.000128
     9  C    0.000000   0.000000  -0.000000  -0.030245  -0.038565   0.002380
    10  C    0.000000   0.000000  -0.000004  -0.003210   0.363106  -0.034300
    11  C   -0.000000  -0.000000  -0.000000  -0.000018  -0.041335   0.366757
    12  C    0.000000  -0.000000   0.000000   0.000006   0.004093  -0.037665
    13  C    0.000000   0.000000  -0.000000  -0.000135   0.000396   0.004233
    14  C   -0.000000  -0.000000   0.000002   0.006253   0.005879   0.000792
    15  S   -0.000000   0.000004  -0.000066   0.005675  -0.000282   0.000023
    16  C   -0.000143   0.000235   0.005008   0.000001   0.000000   0.000000
    17  N   -0.000665   0.003587  -0.000114  -0.000000  -0.000000  -0.000000
    18  O   -0.041946   0.003437   0.000002  -0.000000   0.000000   0.000000
    19  O    8.140014  -0.000220   0.000000   0.000000   0.000000   0.000000
    20  H   -0.000220   0.467587  -0.004493   0.000000   0.000000  -0.000000
    21  H    0.000000  -0.004493   0.503687   0.001797   0.000001   0.000000
    22  H    0.000000   0.000000   0.001797   0.524410   0.002592  -0.000002
    23  H    0.000000   0.000000   0.000001   0.002592   0.540082  -0.004283
    24  H    0.000000  -0.000000   0.000000  -0.000002  -0.004283   0.528407
    25  H    0.000000   0.000000  -0.000000  -0.000000  -0.000163  -0.004315
    26  H   -0.000000  -0.000000   0.000000   0.000002   0.000015  -0.000155
    27  H    0.000001   0.000019  -0.000122  -0.000001   0.000000  -0.000000
              25         26         27
     1  F    0.000000   0.000000   0.000002
     2  S    0.000000   0.000000  -0.000173
     3  C   -0.000000   0.000000   0.006358
     4  C   -0.000000  -0.000000   0.000211
     5  C    0.000000   0.000000   0.003439
     6  C   -0.000000   0.000001  -0.062850
     7  C   -0.000000   0.000040  -0.002131
     8  C    0.000008  -0.000226  -0.000009
     9  C    0.000772   0.002869   0.000002
    10  C    0.004004   0.000650   0.000000
    11  C   -0.037696   0.003821   0.000000
    12  C    0.368606  -0.034809  -0.000000
    13  C   -0.038098   0.367742   0.000001
    14  C    0.003701  -0.040110  -0.000013
    15  S   -0.000127  -0.001615   0.005761
    16  C    0.000000   0.000000   0.384708
    17  N    0.000000  -0.000000  -0.048056
    18  O    0.000000  -0.000000   0.000000
    19  O    0.000000  -0.000000   0.000001
    20  H    0.000000  -0.000000   0.000019
    21  H   -0.000000   0.000000  -0.000122
    22  H   -0.000000   0.000002  -0.000001
    23  H   -0.000163   0.000015   0.000000
    24  H   -0.004315  -0.000155  -0.000000
    25  H    0.528545  -0.004352   0.000000
    26  H   -0.004352   0.521217   0.000000
    27  H    0.000000   0.000000   0.498079
 Mulliken charges:
               1
     1  F   -0.268234
     2  S    1.250658
     3  C   -0.000858
     4  C   -0.162493
     5  C   -0.145632
     6  C    0.111779
     7  C   -0.271097
     8  C   -0.171162
     9  C    0.116910
    10  C   -0.199353
    11  C   -0.177094
    12  C   -0.153372
    13  C   -0.200591
    14  C   -0.179520
    15  S    0.315453
    16  C   -0.021764
    17  N   -0.431197
    18  O   -0.490549
    19  O   -0.472477
    20  H    0.229947
    21  H    0.204301
    22  H    0.184122
    23  H    0.175171
    24  H    0.178255
    25  H    0.179116
    26  H    0.184910
    27  H    0.214773
 Sum of Mulliken charges =  -0.00000
 Mulliken charges with hydrogens summed into heavy atoms:
               1
     1  F   -0.268234
     2  S    1.250658
     3  C   -0.000858
     4  C    0.067454
     5  C    0.058668
     6  C    0.111779
     7  C   -0.271097
     8  C    0.012960
     9  C    0.116910
    10  C   -0.024182
    11  C    0.001161
    12  C    0.025744
    13  C   -0.015681
    14  C   -0.179520
    15  S    0.315453
    16  C    0.193009
    17  N   -0.431197
    18  O   -0.490549
    19  O   -0.472477
 Electronic spatial extent (au):  <R**2>=           9097.7598
 Charge=             -0.0000 electrons
 Dipole moment (field-independent basis, Debye):
    X=             -7.5087    Y=              1.6569    Z=              0.2928  Tot=              7.6949
 Quadrupole moment (field-independent basis, Debye-Ang):
   XX=           -135.5593   YY=           -109.6291   ZZ=           -128.0148
   XY=             -0.7277   XZ=              0.1165   YZ=             -0.7927
 Traceless Quadrupole moment (field-independent basis, Debye-Ang):
   XX=            -11.1582   YY=             14.7720   ZZ=             -3.6137
   XY=             -0.7277   XZ=              0.1165   YZ=             -0.7927
 Octapole moment (field-independent basis, Debye-Ang**2):
  XXX=           -231.4412  YYY=              6.3480  ZZZ=              2.0581  XYY=              2.5684
  XXY=            -19.6614  XXZ=             18.3568  XZZ=             22.0267  YZZ=             -7.7570
  YYZ=              3.2205  XYZ=              5.5171
 Hexadecapole moment (field-independent basis, Debye-Ang**3):
 XXXX=         -10477.1914 YYYY=           -787.9231 ZZZZ=           -297.6593 XXXY=           -154.8795
 XXXZ=            -34.5761 YYYX=            -18.5652 YYYZ=             -2.3909 ZZZX=             11.9569
 ZZZY=             -0.9912 XXYY=          -1779.1020 XXZZ=          -2009.3503 YYZZ=           -195.5519
 XXYZ=            -54.9321 YYXZ=              9.0313 ZZXY=            -21.5199
 N-N= 1.561479059705D+03 E-N=-6.889304117046D+03  KE= 1.591085572975D+03
 No NMR shielding tensors so no spin-rotation constants.
 Leave Link  601 at Fri Oct  4 16:10:06 2024, MaxMem=  2097152000 cpu:               2.8 elap:               0.2
 (Enter /uufs/chpc.utah.edu/sys/installdir/gaussian16/C01/AVX/g16/l701.exe)
 ... and contract with generalized density number  0.
 Compute integral first derivatives.
 R6APFD:  NTU= -4 IXU= 1 FactS= 1.050
 R6Disp: Adding Petersson-Frisch dispersion energy 1st derivatives to the gradient.
 Leave Link  701 at Fri Oct  4 16:10:06 2024, MaxMem=  2097152000 cpu:               2.7 elap:               0.2
 (Enter /uufs/chpc.utah.edu/sys/installdir/gaussian16/C01/AVX/g16/l702.exe)
 L702 exits ... SP integral derivatives will be done elsewhere.
 Leave Link  702 at Fri Oct  4 16:10:06 2024, MaxMem=  2097152000 cpu:               0.6 elap:               0.1
 (Enter /uufs/chpc.utah.edu/sys/installdir/gaussian16/C01/AVX/g16/l703.exe)
 Integral derivatives from FoFJK, PRISM(SPDF).
 Compute integral first derivatives, UseDBF=F ICtDFT=           0.
 Calling FoFJK, ICntrl=      2127 FMM=F ISym2X=0 I1Cent= 0 IOpClX= 0 NMat=1 NMatS=1 NMatT=0.
 FoFJK:  IHMeth= 1 ICntrl=    2127 DoSepK=F KAlg= 0 I1Cent=           0 FoldK=F
 IRaf=         0 NMat=       1 IRICut=       1 DoRegI=T DoRafI=F ISym2E= 0 IDoP0=0 IntGTp=1.
 FoFCou: FMM=F IPFlag=           0 FMFlag=      100000 FMFlg1=         800
         NFxFlg=           0 DoJE=F BraDBF=F KetDBF=F FulRan=T
         wScrn=  0.000000 ICntrl=      2127 IOpCl=  0 I1Cent=           0 NGrid=           0
         NMat0=    1 NMatS0=      1 NMatT0=    0 NMatD0=    1 NMtDS0=    0 NMtDT0=    0
 Symmetry not used in FoFCou.
 Leave Link  703 at Fri Oct  4 16:10:12 2024, MaxMem=  2097152000 cpu:             100.2 elap:               6.3
 (Enter /uufs/chpc.utah.edu/sys/installdir/gaussian16/C01/AVX/g16/l716.exe)
 Dipole        =-2.95414842D+00 6.51863211D-01 1.15197802D-01
 ***** Axes restored to original set *****
 -------------------------------------------------------------------
 Center     Atomic                   Forces (Hartrees/Bohr)
 Number     Number              X              Y              Z
 -------------------------------------------------------------------
      1        9           0.004309937    0.008424777   -0.009381634
      2       16          -0.008096915   -0.005386670    0.035657523
      3        6           0.015156840   -0.004048615   -0.045885344
      4        6          -0.001720603    0.004951114    0.001780695
      5        6          -0.000170106   -0.004009513    0.003537498
      6        6          -0.003918511    0.009183950    0.004433752
      7        6          -0.000022970    0.012587854    0.016978107
      8        6          -0.003561516   -0.006425405    0.000037403
      9        6          -0.000819880    0.007512542    0.014723909
     10        6           0.000030166    0.004082668   -0.003754470
     11        6          -0.001281561   -0.004902543    0.022989902
     12        6           0.001477965   -0.014087879   -0.011277348
     13        6          -0.000455319    0.001529438    0.002434982
     14        6           0.002252461    0.009357329   -0.021295297
     15       16           0.001795744   -0.017544390   -0.021851170
     16        6           0.002394800   -0.026761534    0.004444849
     17        7          -0.012638159    0.025896701    0.013469381
     18        8           0.007130412    0.002085392   -0.002052893
     19        8          -0.003212189   -0.000735517   -0.005608034
     20        1          -0.000322357   -0.000701798   -0.000339262
     21        1           0.000862325    0.000101566   -0.002157091
     22        1           0.000595729   -0.000327429    0.001870532
     23        1           0.000312613   -0.001132739    0.000519979
     24        1           0.000049029   -0.000496539    0.000977734
     25        1           0.000131651   -0.001100107   -0.000107548
     26        1           0.000118004   -0.000416002    0.000129786
     27        1          -0.000397590    0.002363350   -0.000275939
 -------------------------------------------------------------------
 Cartesian Forces:  Max     0.045885344 RMS     0.010529019
 Leave Link  716 at Fri Oct  4 16:10:13 2024, MaxMem=  2097152000 cpu:               0.7 elap:               0.1
 (Enter /uufs/chpc.utah.edu/sys/installdir/gaussian16/C01/AVX/g16/l103.exe)

 GradGradGradGradGradGradGradGradGradGradGradGradGradGradGradGradGradGrad
 Berny optimization.
 FormGI is forming the generalized inverse of G from B-inverse, IUseBI=4.
 Internal  Forces:  Max     0.032223576 RMS     0.006262622
 Search for a local minimum.
 Step number   1 out of a maximum of  152
 All quantities printed in internal units (Hartrees-Bohrs-Radians)
 RMS Force = .62626D-02 SwitMx=.10000D-02 MixMth= 1
 Mixed Optimization -- RFO/linear search
 Second derivative matrix not updated -- first step.
 ITU=  0
     Eigenvalues ---    0.00647   0.01127   0.01600   0.01637   0.01751
     Eigenvalues ---    0.01781   0.01836   0.01931   0.01954   0.01996
     Eigenvalues ---    0.02031   0.02052   0.02070   0.02080   0.02103
     Eigenvalues ---    0.02149   0.02158   0.02168   0.02195   0.02202
     Eigenvalues ---    0.02219   0.02272   0.11195   0.12592   0.15977
     Eigenvalues ---    0.15989   0.15995   0.15999   0.15999   0.15999
     Eigenvalues ---    0.16000   0.16000   0.22000   0.22319   0.22581
     Eigenvalues ---    0.23374   0.23637   0.24499   0.24532   0.24903
     Eigenvalues ---    0.24958   0.24964   0.24996   0.25000   0.25000
     Eigenvalues ---    0.25000   0.27835   0.33052   0.33252   0.35048
     Eigenvalues ---    0.35051   0.35083   0.35102   0.35140   0.35221
     Eigenvalues ---    0.35366   0.35422   0.35576   0.38795   0.40514
     Eigenvalues ---    0.40609   0.42507   0.43350   0.43897   0.45130
     Eigenvalues ---    0.45729   0.45842   0.46903   0.47441   0.47467
     Eigenvalues ---    0.51942   0.53045   0.53821   0.94735   0.95920
 RFO step:  Lambda=-1.77864786D-02 EMin= 6.46753644D-03
 Linear search not attempted -- first point.
 Iteration  1 RMS(Cart)=  0.11455546 RMS(Int)=  0.00348671
 Iteration  2 RMS(Cart)=  0.00675322 RMS(Int)=  0.00035550
 Iteration  3 RMS(Cart)=  0.00001085 RMS(Int)=  0.00035538
 Iteration  4 RMS(Cart)=  0.00000001 RMS(Int)=  0.00035538
 ITry= 1 IFail=0 DXMaxC= 4.36D-01 DCOld= 1.00D+10 DXMaxT= 3.00D-01 DXLimC= 3.00D+00 Rises=F
 Variable       Old X    -DE/DX   Delta X   Delta X   Delta X     New X
                                 (Linear)    (Quad)   (Total)
    R1        2.99895   0.00251   0.00000   0.00451   0.00451   3.00346
    R2        3.36201   0.00211   0.00000   0.00713   0.00713   3.36914
    R3        2.74524  -0.00749   0.00000  -0.00776  -0.00776   2.73748
    R4        2.74018  -0.00576   0.00000  -0.00589  -0.00589   2.73429
    R5        2.61726   0.00223   0.00000   0.00403   0.00421   2.62147
    R6        2.56343  -0.02383   0.00000  -0.04469  -0.04454   2.51889
    R7        2.63686  -0.00837   0.00000  -0.01573  -0.01570   2.62116
    R8        2.05084  -0.00002   0.00000  -0.00006  -0.00006   2.05078
    R9        2.65265  -0.00435   0.00000  -0.00723  -0.00738   2.64527
   R10        2.05592  -0.00115   0.00000  -0.00313  -0.00313   2.05279
   R11        2.78296  -0.01101   0.00000  -0.02961  -0.02961   2.75335
   R12        2.64460   0.00219   0.00000   0.00485   0.00468   2.64927
   R13        2.61368  -0.01356   0.00000  -0.02942  -0.02947   2.58421
   R14        3.24177   0.01910   0.00000   0.05193   0.05205   3.29382
   R15        2.71780  -0.00858   0.00000  -0.02171  -0.02187   2.69593
   R16        2.04750   0.00171   0.00000   0.00457   0.00457   2.05207
   R17        2.67464  -0.00901   0.00000  -0.01999  -0.02003   2.65461
   R18        2.63468   0.01921   0.00000   0.04242   0.04231   2.67699
   R19        2.64462  -0.01406   0.00000  -0.03037  -0.03038   2.61425
   R20        2.05510  -0.00006   0.00000  -0.00016  -0.00016   2.05494
   R21        2.62438   0.01691   0.00000   0.03349   0.03352   2.65791
   R22        2.05448  -0.00042   0.00000  -0.00114  -0.00114   2.05334
   R23        2.63566  -0.00788   0.00000  -0.01638  -0.01634   2.61932
   R24        2.05540  -0.00054   0.00000  -0.00146  -0.00146   2.05394
   R25        2.66168  -0.00943   0.00000  -0.01970  -0.01969   2.64199
   R26        2.05318   0.00007   0.00000   0.00019   0.00019   2.05336
   R27        3.24013   0.00978   0.00000   0.03028   0.03038   3.27052
   R28        2.56264  -0.02441   0.00000  -0.04534  -0.04538   2.51726
   R29        2.05597  -0.00001   0.00000  -0.00002  -0.00002   2.05595
    A1        1.86939  -0.03222   0.00000  -0.13117  -0.13166   1.73772
    A2        1.83553   0.01016   0.00000   0.02736   0.02621   1.86174
    A3        1.85390   0.00627   0.00000   0.00840   0.00826   1.86216
    A4        1.87936   0.00043   0.00000   0.00869   0.00754   1.88690
    A5        1.88985   0.00745   0.00000   0.03285   0.03200   1.92185
    A6        2.12180   0.00213   0.00000   0.02754   0.02626   2.14806
    A7        2.10024  -0.01013   0.00000  -0.03387  -0.03521   2.06503
    A8        1.99801   0.00655   0.00000   0.02856   0.02727   2.02528
    A9        2.17944   0.00386   0.00000   0.01376   0.01315   2.19259
   A10        2.04995  -0.00339   0.00000  -0.01063  -0.01036   2.03959
   A11        2.11908   0.00101   0.00000   0.00183   0.00157   2.12065
   A12        2.11340   0.00242   0.00000   0.00971   0.00943   2.12282
   A13        2.10278  -0.00486   0.00000  -0.01198  -0.01199   2.09079
   A14        2.07142   0.00447   0.00000   0.01782   0.01775   2.08917
   A15        2.10787   0.00042   0.00000  -0.00497  -0.00506   2.10282
   A16        2.10691   0.00097   0.00000   0.00140   0.00139   2.10830
   A17        2.03393   0.00208   0.00000   0.01315   0.01290   2.04684
   A18        2.14119  -0.00301   0.00000  -0.01344  -0.01345   2.12774
   A19        2.25908  -0.01118   0.00000  -0.03872  -0.03878   2.22029
   A20        2.09795  -0.00114   0.00000  -0.00124  -0.00130   2.09665
   A21        1.92476   0.01235   0.00000   0.04092   0.04087   1.96564
   A22        1.98541  -0.00240   0.00000  -0.01582  -0.01633   1.96908
   A23        2.15303   0.00046   0.00000   0.00406   0.00395   2.15698
   A24        2.14452   0.00197   0.00000   0.01257   0.01246   2.15697
   A25        2.28275  -0.00652   0.00000  -0.02702  -0.02683   2.25592
   A26        1.93917   0.00288   0.00000   0.01190   0.01164   1.95081
   A27        2.06123   0.00365   0.00000   0.01518   0.01522   2.07645
   A28        2.10182  -0.00472   0.00000  -0.01997  -0.02005   2.08177
   A29        2.09568   0.00108   0.00000   0.00277   0.00281   2.09849
   A30        2.08565   0.00365   0.00000   0.01723   0.01727   2.10292
   A31        2.09980   0.00312   0.00000   0.01120   0.01119   2.11099
   A32        2.09050  -0.00260   0.00000  -0.01144  -0.01143   2.07906
   A33        2.09289  -0.00052   0.00000   0.00024   0.00024   2.09313
   A34        2.10274   0.00257   0.00000   0.01035   0.01039   2.11313
   A35        2.09261  -0.00029   0.00000   0.00045   0.00043   2.09304
   A36        2.08783  -0.00229   0.00000  -0.01079  -0.01082   2.07701
   A37        2.07584  -0.00472   0.00000  -0.01711  -0.01709   2.05875
   A38        2.10183   0.00281   0.00000   0.01107   0.01106   2.11289
   A39        2.10549   0.00192   0.00000   0.00606   0.00605   2.11154
   A40        2.12492   0.00010   0.00000   0.00037   0.00034   2.12526
   A41        1.94374  -0.00088   0.00000   0.00276   0.00275   1.94649
   A42        2.21451   0.00078   0.00000  -0.00314  -0.00310   2.21141
   A43        1.63137  -0.01192   0.00000  -0.03899  -0.03864   1.59273
   A44        2.17983  -0.00275   0.00000  -0.01332  -0.01341   2.16642
   A45        2.11986  -0.00111   0.00000  -0.00716  -0.00722   2.11264
   A46        1.98337   0.00386   0.00000   0.02080   0.02074   2.00411
   A47        2.01925   0.00511   0.00000   0.01010   0.01051   2.02976
[...]
   53      -1.0190       -0.7136      -0.3054        -0.9451      -0.0739
   54     203.3017        0.0293     203.2724         0.0511     203.2506
   67      -1.2753       -5.3483       4.0730        -2.1860       0.9108
   68      -1.6525       -4.5271       2.8746        -3.1276       1.4751
 Sum       57.1251     -213.4930     270.6181      -207.1132     264.2383

 Contributions to Isotropic shielding for atom   15 (   381.4869 ppm):
                         Standard Origin              Atomic Origin
 NLMO      Total    Paramagnetic  Diamagnetic   Paramagnetic  Diamagnetic
   13      -3.4436       -3.7602       0.3166        -4.1703       0.7267
   14      -0.8190       -0.7344      -0.0847        -1.6702       0.8512
   15      -6.8757       -6.2318      -0.6439        -7.8117       0.9360
   16      -0.8782       -1.0331       0.1549        -2.6910       1.8129
   17    -114.3989     -127.5216      13.1226      -126.3066      11.9077
   18      -9.4994      -10.2949       0.7955       -10.7399       1.2405
   19      -8.4967       -8.7871       0.2904        -8.7747       0.2780
   20      -5.2508       -4.7838      -0.4670        -4.9752      -0.2756
   21       5.5916        3.3330       2.2586         4.9151       0.6765
   22       0.6049       -2.7842       3.3891        -1.3915       1.9964
   24       0.1308       -0.5939       0.7247        -0.8828       1.0135
   25      -0.8371       -1.2333       0.3962        -1.1102       0.2731
   26       0.3214       -0.7168       1.0382        -0.3296       0.6510
   28      -3.2310       -3.5810       0.3500        -3.3334       0.1024
   29      -0.7510       -1.0839       0.3328        -0.9755       0.2245
   31      -2.7500       -2.7735       0.0236        -3.0866       0.3366
   32      -3.8998       -5.3209       1.4212        -4.7439       0.8441
   33     -99.3900     -111.0210      11.6310      -111.7860      12.3960
   55     568.5432        0.0000     568.5432         0.0000     568.5432
   56      95.0938        0.0775      95.0163         0.0778      95.0160
   57      53.2430      -53.8009     107.0439       -54.5186     107.7616
   58      50.2041      -58.5764     108.7805       -57.7070     107.9111
   59      56.1591      -49.3835     105.5426       -49.3250     105.4841
   67     -91.5423     -113.6166      22.0743      -114.3837      22.8413
   68     -95.2486     -115.3120      20.0634      -115.2202      19.9716
 Sum      382.5799     -679.5343    1062.1142      -680.9406    1063.5205

 Contributions to Isotropic shielding for atom   16 (    50.8894 ppm):
                         Standard Origin              Atomic Origin
 NLMO      Total    Paramagnetic  Diamagnetic   Paramagnetic  Diamagnetic
    1       1.0068       -0.3833       1.3901        -0.2082       1.2151
    4       0.8234       -0.4343       1.2577        -0.3066       1.1300
    5       0.2172       -1.3364       1.5536        -1.0134       1.2306
    6       4.7453        1.2724       3.4728         1.6571       3.0882
    7       1.0470       -1.2878       2.3347        -0.6311       1.6781
    8      -0.1513       -0.7349       0.5836        -1.3919       1.2406
   10      -1.8205       -1.8573       0.0368        -2.0530       0.2324
   11      -0.8316       -3.7991       2.9674        -4.4467       3.6151
   13      -1.4122       -1.4447       0.0325        -1.5389       0.1267
   14     -50.6261      -62.7730      12.1469       -59.7533       9.1272
   17      -0.1289       -0.7799       0.6509        -1.5071       1.3782
   34     -48.8908      -52.0629       3.1721       -54.3448       5.4540
   35       2.2027      -12.1444      14.3471       -11.9871      14.1898
   36     -44.3409      -55.8108      11.4700       -56.5859      12.2450
   60     203.2504        0.0018     203.2486        -0.0050     203.2554
   69      -8.1631       -9.2072       1.0442        -9.3492       1.1861
 Sum       56.9274     -202.7816     259.7090      -203.4651     260.3925

 Contributions to Isotropic shielding for atom   17 (   -50.5577 ppm):
                         Standard Origin              Atomic Origin
 NLMO      Total    Paramagnetic  Diamagnetic   Paramagnetic  Diamagnetic
    1       2.4647       -0.2506       2.7153         0.8098       1.6549
    2      -1.1136       -1.2370       0.1234        -2.0463       0.9327
    3      -0.3514       -1.6173       1.2659        -0.9481       0.5966
    4       1.8315       -0.7560       2.5875         0.1996       1.6319
    5       0.4484       -1.5353       1.9837        -0.3150       0.7634
    6      -0.4845       -5.0669       4.5824        -3.4757       2.9912
    7     -54.2017      -71.2919      17.0902       -65.9313      11.7296
    8       0.1827       -0.4425       0.6252        -1.1688       1.3515
    9      -0.7674       -1.0219       0.2546        -1.3057       0.5383
   10      -0.2341       -0.1089      -0.1252        -1.2195       0.9854
   11       6.4409        4.7987       1.6422         3.0994       3.3415
   14      -6.0028       -6.4387       0.4360        -6.5669       0.5642
   34     -54.1411      -76.6684      22.5273       -66.1820      12.0409
   35      -7.2083      -26.4610      19.2528       -26.9606      19.7524
   36      -3.0824       -4.4061       1.3237        -4.1571       1.0746
   61     239.6574        0.0111     239.6463         0.0326     239.6248
   69    -166.3058     -180.1153      13.8095      -196.4404      30.1346
   71      -1.7547       -2.6226       0.8679        -2.1827       0.4280
   73      -0.7424        0.3929      -1.1354        -0.1075      -0.6349
   74      -0.8824       -1.6265       0.7441        -1.1312       0.2488
   75      -0.1734       -1.0579       0.8845        -0.8955       0.7221
 Sum      -46.4205     -377.5223     331.1018      -376.8930     330.4726

 Contributions to Isotropic shielding for atom   18 (   121.9422 ppm):
                         Standard Origin              Atomic Origin
 NLMO      Total    Paramagnetic  Diamagnetic   Paramagnetic  Diamagnetic
    1     -14.8417      -13.6466      -1.1951       -16.0579       1.2162
    2      -2.4628       -3.0559       0.5931        -3.7487       1.2859
    3     -65.4209      -77.8720      12.4511       -76.7062      11.2853
    4     -19.3662      -18.9247      -0.4414       -20.5891       1.2229
    5      -1.5172        0.0080      -1.5252        -2.5637       1.0465
    6       0.6369        1.1667      -0.5298        -1.0012       1.6381
    7       2.0213        2.4749      -0.4537         1.8604       0.1609
   62     275.6337        0.0167     275.6170         0.0171     275.6167
   64       0.7723       -0.2625       1.0348         0.6382       0.1341
   65      -9.8596      -10.3178       0.4582       -10.6954       0.8359
   69       1.3426        0.7669       0.5756         1.6444      -0.3018
   70       9.6051      -23.0659      32.6710       -23.7639      33.3690
   71      -4.3671      -36.8936      32.5265       -39.8276      35.4606
   72      -6.5160      -40.1364      33.6204       -40.5240      34.0080
   73      -0.2186       -1.9714       1.7528        -0.3697       0.1511
   74     -38.4705      -42.2917       3.8212       -40.7530       2.2825
   75      -6.8684       -6.1079      -0.7605        -7.6505       0.7821
 Sum      120.1029     -270.1132     390.2161      -280.0909     400.1939

 Contributions to Isotropic shielding for atom   19 (   109.2774 ppm):
                         Standard Origin              Atomic Origin
 NLMO      Total    Paramagnetic  Diamagnetic   Paramagnetic  Diamagnetic
    1     -14.9366      -13.8253      -1.1113       -16.1536       1.2170
    2       2.2210        1.4959       0.7251         0.9431       1.2779
    3     -20.6065      -20.1613      -0.4452       -21.7763       1.1697
    4     -62.1889      -73.5436      11.3547       -72.9026      10.7137
    5       1.1413        1.4494      -0.3081         0.8846       0.2567
    6      -0.7727       -0.6808      -0.0919        -1.5957       0.8231
    7      -0.8567        0.4639      -1.3206        -2.1247       1.2680
   11       0.0669       -0.0422       0.1092        -1.0305       1.0975
   63     275.6640        0.0144     275.6496         0.0140     275.6500
   65      -8.5578       -9.0171       0.4593        -9.3766       0.8188
   66      -0.6329       -1.0629       0.4300        -1.1896       0.5567
   69       1.8566        1.5416       0.3150         2.6231      -0.7664
   70      -0.1699       -1.9383       1.7684        -0.3307       0.1608
   71     -21.7991      -24.4044       2.6053       -23.9530       2.1539
   72      -9.7148       -9.8474       0.1326       -10.8521       1.1373
   73       0.1088      -32.2770      32.3857       -33.1656      33.2744
   74     -29.1267      -62.4008      33.2741       -64.8698      35.7431
   75      -4.1644      -36.6983      32.5339       -37.7323      33.5679
 Sum      107.5315     -280.9342     388.4656      -292.5884     400.1199

 Contributions to Isotropic shielding for atom   20 (    24.1819 ppm):
                         Standard Origin              Atomic Origin
 NLMO      Total    Paramagnetic  Diamagnetic   Paramagnetic  Diamagnetic
    1       0.8030       -0.2732       1.0762        -0.1143       0.9173
    2      -0.1092        0.2495      -0.3587        -1.7112       1.6020
    3       2.7196       -0.6160       3.3355         0.9522       1.7674
    5      -2.7310       -1.0700      -1.6611        -2.8628       0.1318
    6       0.1317       -0.1634       0.2951        -3.5049       3.6366
    8      -1.7652       -2.3933       0.6280        -2.2996       0.5344
    9      26.3471        3.2240      23.1230         3.5967      22.7503
   11       1.4169        0.5996       0.8173         0.6785       0.7384
   12      -0.2568       -0.1756      -0.0812        -1.2605       1.0037
   34      -0.1329       -0.0946      -0.0383        -1.0459       0.9130
   35       0.8408       -0.0165       0.8574        -0.5383       1.3791
   44       1.0975        0.7038       0.3937         1.1176      -0.0201
   70      -1.4334        0.5227      -1.9561        -0.3665      -1.0669
   71      -0.9877       -2.2295       1.2418        -0.7323      -0.2554
   72      -0.2649       -1.8238       1.5589        -1.2332       0.9683
 Sum       25.6752       -3.5562      29.2314        -9.3246      34.9997

 Contributions to Isotropic shielding for atom   21 (    24.0652 ppm):
                         Standard Origin              Atomic Origin
 NLMO      Total    Paramagnetic  Diamagnetic   Paramagnetic  Diamagnetic
    3       0.7403       -0.2081       0.9483        -0.2989       1.0392
    8      -2.4180       -1.5403      -0.8777        -3.3704       0.9524
    9      -0.2400       -1.0721       0.8322        -1.3142       1.0742
   10      -1.2619       -2.6642       1.4023        -2.1760       0.9141
   11       1.3343       -0.8346       2.1689        -1.8969       3.2312
   12      26.9874        3.1086      23.8789         3.4480      23.5394
   13      -0.3249       -0.1828      -0.1421        -1.3661       1.0412
   15      -0.1006       -0.3023       0.2017        -1.3260       1.2254
   16       0.4850       -0.3463       0.8314        -1.1630       1.6481
   35       0.5197        0.0421       0.4776        -0.8096       1.3293
 Sum       25.7214       -4.0001      29.7214       -10.2730      35.9943

 Contributions to Isotropic shielding for atom   22 (    24.6693 ppm):
                         Standard Origin              Atomic Origin
 NLMO      Total    Paramagnetic  Diamagnetic   Paramagnetic  Diamagnetic
   10      -0.1609       -0.0362      -0.1247        -1.1157       0.9548
   11      -0.2187       -0.4617       0.2430        -1.5730       1.3544
   13      -0.1597       -0.3607       0.2010        -1.2398       1.0801
   15      -1.3012       -2.3194       1.0182        -1.9339       0.6326
   16       2.5424       -0.7952       3.3376        -0.8105       3.3530
   18      -1.9009       -0.7400      -1.1610        -3.0413       1.1404
   19      26.9713        3.2195      23.7518         3.2446      23.7267
   22       0.4391       -0.9739       1.4130        -0.6054       1.0446
   25      -0.0120       -1.6900       1.6780        -0.8086       0.7966
   29       0.0637       -0.6293       0.6929        -0.9540       1.0177
   33       0.4323       -0.6272       1.0596        -0.8793       1.3117
 Sum       26.6954       -5.4140      32.1094        -9.7171      36.4125

 Contributions to Isotropic shielding for atom   23 (    24.2854 ppm):
                         Standard Origin              Atomic Origin
 NLMO      Total    Paramagnetic  Diamagnetic   Paramagnetic  Diamagnetic
   17      -0.2748        0.0694      -0.3442        -1.1318       0.8570
   18      -0.8510        0.0789      -0.9299        -1.3875       0.5365
   20      -0.2397       -4.1769       3.9372        -1.5263       1.2866
   22       0.5795        0.3440       0.2355        -0.5176       1.0971
   23      -3.0032       -0.6228      -2.3804        -4.0141       1.0109
   24      -0.8337       -1.0905       0.2568        -4.1493       3.3156
   25      27.0668        2.8980      24.1688         3.1162      23.9506
   27      -0.2159       -1.6428       1.4270        -1.2729       1.0571
   29       1.5973       -0.8036       2.4010         0.2109       1.3864
   31      -0.2537        0.1459      -0.3997        -1.0051       0.7514
 Sum       23.5717       -4.8003      28.3720       -11.6775      35.2492

 Contributions to Isotropic shielding for atom   24 (    24.6480 ppm):
                         Standard Origin              Atomic Origin
 NLMO      Total    Paramagnetic  Diamagnetic   Paramagnetic  Diamagnetic
   21      -0.5212        0.3332      -0.8544        -1.2139       0.6926
   22      -0.2552        0.8095      -1.0647        -1.6177       1.3625
   23      -2.4000       -2.6184       0.2184        -2.8384       0.4384
   24       0.3162        1.7299      -1.4137        -3.4295       3.7457
   25      -0.2706        0.9653      -1.2359        -1.2863       1.0157
   26      -3.8393       -0.3336      -3.5057        -4.4297       0.5904
   27      27.6517        2.8368      24.8150         3.7196      23.9321
   29       1.7217        0.3275       1.3943         1.1048       0.6169
   30      -0.0844        0.0327      -0.1170        -1.1120       1.0276
   31      -0.2095        0.0281      -0.2375        -1.1238       0.9143
   51       2.1126        1.3687       0.7440         2.1405      -0.0279
 Sum       24.2221        5.4795      18.7426       -10.0864      34.3084

 Contributions to Isotropic shielding for atom   25 (    24.6321 ppm):
                         Standard Origin              Atomic Origin
 NLMO      Total    Paramagnetic  Diamagnetic   Paramagnetic  Diamagnetic
   21      -0.4812        0.2669      -0.7481        -1.2541       0.7729
   22      -0.2066        0.7445      -0.9511        -1.5114       1.3049
   24       1.2009        0.2574       0.9435         0.3140       0.8869
   26      -3.7624       -0.5304      -3.2320        -4.4276       0.6652
   27      -0.0598        0.2006      -0.2603        -1.1003       1.0405
   28      -2.7876       -2.1440      -0.6436        -3.3255       0.5380
   29       0.7038        2.0772      -1.3734        -2.7167       3.4205
   30      27.7775        2.8188      24.9587         3.8599      23.9176
   32      -0.2419        1.0381      -1.2800        -1.2992       1.0572
   52       2.2596        1.4611       0.7985         2.2887      -0.0291
 Sum       24.4023        6.1901      18.2122        -9.1723      33.5745

 Contributions to Isotropic shielding for atom   26 (    24.3501 ppm):
                         Standard Origin              Atomic Origin
 NLMO      Total    Paramagnetic  Diamagnetic   Paramagnetic  Diamagnetic
   24       1.5156       -0.8612       2.3768         0.2717       1.2439
   26       0.0265       -0.9940       1.0205        -0.0084       0.0349
   28      -3.3449       -0.0991      -3.2458        -4.1393       0.7944
   29      -0.9046       -0.7470      -0.1576        -4.3315       3.4268
   30      -0.1035       -1.4168       1.3134        -1.1421       1.0386
   31      -0.3676       -3.5060       3.1384        -1.0991       0.7315
   32      27.0363        3.0182      24.0181         3.2718      23.7645
   33      -1.5331        0.3832      -1.9163        -2.7583       1.2252
   67       0.6225       -0.4398       1.0623         1.3824      -0.7599
 Sum       22.9473       -4.6624      27.6097        -8.5528      31.5001

 Contributions to Isotropic shielding for atom   27 (    23.2410 ppm):
                         Standard Origin              Atomic Origin
 NLMO      Total    Paramagnetic  Diamagnetic   Paramagnetic  Diamagnetic
    1       0.7637       -0.2097       0.9734        -0.3217       1.0853
    4       0.6874       -0.2433       0.9307        -0.3438       1.0312
    6       1.0268       -0.3468       1.3736        -0.4397       1.4665
   13      -0.3941       -0.1050      -0.2891        -1.1502       0.7561
   14      -1.7267       -2.8490       1.1222        -2.7799       1.0532
   17       0.3816       -0.4028       0.7844        -1.3264       1.7080
   34      -2.1694       -1.3420      -0.8275        -3.3008       1.1313
   35       0.5240       -1.1444       1.6684        -2.9237       3.4478
   36      27.3614        3.8300      23.5314         4.0598      23.3016
   67      -0.7115        0.1558      -0.8673         0.6155      -1.3270
   69      -1.6389       -1.7083       0.0694        -1.4388      -0.2001
 Sum       24.1042       -4.3654      28.4696        -9.3498      33.4540
 
 Leave Link  607 at Fri Oct  4 16:21:28 2024, MaxMem=  2097152000 cpu:             130.3 elap:              14.6
 (Enter /uufs/chpc.utah.edu/sys/installdir/gaussian16/C01/AVX/g16/l9999.exe)
 Unable to Open any file for archive entry.
 1\1\GINC-NOTCH132\SP\RAPFD\6-31G(d)\C13H8F1N1O2S2\U1318517\04-Oct-2024
 \0\\#p apfd/6-31G* volume NMR pop=NPA geom=check guess=read\\ID-4002\\
 0,1\F,0,2.4314338433,-0.7641821912,-1.0189365523\S,0,3.237595616,0.077
 1944115,0.0852738763\C,0,3.2716487642,1.6599364786,-0.7500239078\C,0,2
 .5505687889,2.7153190155,-0.204316754\C,0,2.6171284192,3.9295401879,-0
 .8748629425\C,0,3.3974852533,4.0415413368,-2.0329772388\C,0,3.50867307
 35,5.3075945001,-2.7489542424\C,0,3.3823518309,6.562450758,-2.22430681
 35\C,0,3.5561654724,7.6045078154,-3.1853653124\C,0,3.5017822796,8.9967
 596036,-2.9999150393\C,0,3.7020685058,9.8352039037,-4.0824800106\C,0,3
 .9604942512,9.3089708726,-5.360642083\C,0,4.023488683,7.9390889271,-5.
 5713111435\C,0,3.8222782279,7.0930694885,-4.4769587001\S,0,3.846169876
 2,5.3504703136,-4.4711348223\C,0,4.0718886955,2.8851883516,-2.47015888
 06\N,0,4.012376429,1.7173037295,-1.8454063916\O,0,2.3668582244,0.17674
 99527,1.235826778\O,0,4.555744209,-0.5002776675,0.1574012565\H,0,1.956
 229195,2.5786813465,0.6925388684\H,0,2.0498538677,4.7838054542,-0.5166
 471972\H,0,3.2048884577,6.7506412937,-1.1700628317\H,0,3.3025084056,9.
 4022704604,-2.010948201\H,0,3.659952616,10.912660468,-3.9464972307\H,0
 ,4.1152325534,9.9845661843,-6.1979211363\H,0,4.2256045363,7.5353398311
 ,-6.5595783593\H,0,4.699089925,2.9173351738,-3.3591349883\\Version=ES6
 4L-G16RevC.01\State=1-A\HF=-1600.7229643\RMSD=8.921e-09\Dipole=-0.4434
 717,2.9518449,-0.8413454\Quadrupole=-0.5062276,-4.0624497,4.5686772,2.
 0958837,-3.7628628,7.2524259\PG=C01 [X(C13H8F1N1O2S2)]\\@
 The archive entry for this job was punched.


 THE MORE ACCURATE THE CALCULATIONS BECOME, THE MORE THE CONCEPTS
 TEND TO VANISH INTO THIN AIR.
     -- R.S. MULLIKEN, J.C.P. 43,S2(1965)
 Job cpu time:       0 days  0 hours  8 minutes 31.5 seconds.
 Elapsed time:       0 days  0 hours  0 minutes 43.5 seconds.
 File lengths (MBytes):  RWF=     72 Int=      0 D2E=      0 Chk=     11 Scr=      2
 Normal termination of Gaussian 16 at Fri Oct  4 16:21:29 2024.
