 Entering Gaussian System, Link 0=g16
 Input=ID-4003.com
 Output=ID-4003.log
 Initial command:
 /uufs/chpc.utah.edu/sys/installdir/gaussian16/C01/AVX/g16/l1.exe "/scratch/general/vast/u1318517/1930433-notchpeak.peaks/Gau-601276.inp" -scrdir="/scratch/general/vast/u1318517/1930433-notchpeak.peaks/"
 Entering Link 1 = /uufs/chpc.utah.edu/sys/installdir/gaussian16/C01/AVX/g16/l1.exe PID=    601277.
  
 Copyright (c) 1988-2019, Gaussian, Inc.  All Rights Reserved.
  
 This is part of the Gaussian(R) 16 program.  It is based on
 the Gaussian(R) 09 system (copyright 2009, Gaussian, Inc.),
 the Gaussian(R) 03 system (copyright 2003, Gaussian, Inc.),
 the Gaussian(R) 98 system (copyright 1998, Gaussian, Inc.),
 the Gaussian(R) 94 system (copyright 1995, Gaussian, Inc.),
 the Gaussian 92(TM) system (copyright 1992, Gaussian, Inc.),
 the Gaussian 90(TM) system (copyright 1990, Gaussian, Inc.),
 the Gaussian 88(TM) system (copyright 1988, Gaussian, Inc.),
 the Gaussian 86(TM) system (copyright 1986, Carnegie Mellon
 University), and the Gaussian 82(TM) system (copyright 1983,
 Carnegie Mellon University). Gaussian is a federally registered
 trademark of Gaussian, Inc.
  
 This software contains proprietary and confidential information,
 including trade secrets, belonging to Gaussian, Inc.
  
 This software is provided under written license and may be
 used, copied, transmitted, or stored only in accord with that
 written license.
  
 The following legend is applicable only to US Government
 contracts under FAR:
  
                    RESTRICTED RIGHTS LEGEND
  
 Use, reproduction and disclosure by the US Government is
 subject to restrictions as set forth in subparagraphs (a)
 and (c) of the Commercial Computer Software - Restricted
 Rights clause in FAR 52.227-19.
  
 Gaussian, Inc.
 340 Quinnipiac St., Bldg. 40, Wallingford CT 06492
  
  
 ---------------------------------------------------------------
 Warning -- This program may not be used in any manner that
 competes with the business of Gaussian, Inc. or will provide
 assistance to any competitor of Gaussian, Inc.  The licensee
 of this program is prohibited from giving any competitor of
 Gaussian, Inc. access to this program.  By using this program,
 the user acknowledges that Gaussian, Inc. is engaged in the
 business of creating and licensing software in the field of
 computational chemistry and represents and warrants to the
 licensee that it is not a competitor of Gaussian, Inc. and that
 it will not use this program in any manner prohibited above.
 ---------------------------------------------------------------
  

 Cite this work as:
 Gaussian 16, Revision C.01,
 M. J. Frisch, G. W. Trucks, H. B. Schlegel, G. E. Scuseria, 
 M. A. Robb, J. R. Cheeseman, G. Scalmani, V. Barone, 
 G. A. Petersson, H. Nakatsuji, X. Li, M. Caricato, A. V. Marenich, 
 J. Bloino, B. G. Janesko, R. Gomperts, B. Mennucci, H. P. Hratchian, 
 J. V. Ortiz, A. F. Izmaylov, J. L. Sonnenberg, D. Williams-Young, 
 F. Ding, F. Lipparini, F. Egidi, J. Goings, B. Peng, A. Petrone, 
 T. Henderson, D. Ranasinghe, V. G. Zakrzewski, J. Gao, N. Rega, 
 G. Zheng, W. Liang, M. Hada, M. Ehara, K. Toyota, R. Fukuda, 
 J. Hasegawa, M. Ishida, T. Nakajima, Y. Honda, O. Kitao, H. Nakai, 
 T. Vreven, K. Throssell, J. A. Montgomery, Jr., J. E. Peralta, 
 F. Ogliaro, M. J. Bearpark, J. J. Heyd, E. N. Brothers, K. N. Kudin, 
 V. N. Staroverov, T. A. Keith, R. Kobayashi, J. Normand, 
 K. Raghavachari, A. P. Rendell, J. C. Burant, S. S. Iyengar, 
 J. Tomasi, M. Cossi, J. M. Millam, M. Klene, C. Adamo, R. Cammi, 
 J. W. Ochterski, R. L. Martin, K. Morokuma, O. Farkas, 
 J. B. Foresman, and D. J. Fox, Gaussian, Inc., Wallingford CT, 2019.
 
 ******************************************
 Gaussian 16:  ES64L-G16RevC.01  3-Jul-2019
                 4-Oct-2024 
 ******************************************
 %nprocs=16
 Will use up to   16 processors via shared memory.
 %mem=16000MB
 %chk=ID-4003.chk
 -------------------------------
 #p apfd/6-31G* opt freq=noraman
 -------------------------------
 1/18=20,19=15,26=3,38=1/1,3;
 2/9=110,12=2,17=6,18=5,40=1/2;
 3/5=1,6=6,7=1,11=2,25=1,30=1,71=1,74=-44/1,2,3;
 4//1;
 5/5=2,38=5/2;
 6/7=2,8=2,9=2,10=2,28=1/1;
 7//1,2,3,16;
 1/18=20,19=15,26=3/3(2);
 2/9=110/2;
 99//99;
 2/9=110/2;
 3/5=1,6=6,7=1,11=2,25=1,30=1,71=1,74=-44/1,2,3;
 4/5=5,16=3,69=1/1;
 5/5=2,38=5/2;
 7//1,2,3,16;
 1/18=20,19=15,26=3/3(-5);
 2/9=110/2;
 6/7=2,8=2,9=2,10=2,19=2,28=1/1;
 99/9=1/99;
 Leave Link    1 at Fri Oct  4 16:21:40 2024, MaxMem=  2097152000 cpu:               1.1 elap:               0.1
 (Enter /uufs/chpc.utah.edu/sys/installdir/gaussian16/C01/AVX/g16/l101.exe)
 -------
 ID-4003
 -------
 Symbolic Z-matrix:
 Charge =  0 Multiplicity = 1
 C                     1.06476   0.07654   0.1332 
 N                     2.5241    0.07458   0.14037 
 C                     3.1838   -1.16256  -0.2667 
 C                     3.23062   1.27776   0.15013 
 C                     2.58983   2.52025   0.25561 
 C                     3.30256   3.72222   0.26744 
 C                     4.69211   3.71625   0.17761 
 C                     5.39733   2.51196   0.06114 
 C                     6.86688   2.48379  -0.12894 
 C                     7.53843   3.48086  -0.86016 
 C                     8.90134   3.37571  -1.13513 
 C                     9.55885   2.25574  -0.66009 
 S                     11.25312   1.96602  -1.11166 
 F                     11.69793   0.59046  -0.45858 
 O                     11.29365   1.74837  -2.54558 
 O                     12.06314   2.98745  -0.47201 
 N                     8.99089   1.27978   0.09021 
 C                     7.66592   1.43209   0.34094 
 C                     4.63843   1.31665   0.06487 
 H                     0.65763  -0.94024   0.10451 
 H                     0.67414   0.60647  -0.74241 
 H                     0.67383   0.53917   1.04622 
 H                     2.47927  -1.99897  -0.33144 
 H                     3.94425  -1.45448   0.46595 
 H                     3.64819  -1.0568   -1.25353 
 H                     1.50803   2.5879    0.32122 
 H                     2.76645   4.66522   0.33916 
 H                     5.21138   4.67128   0.19615 
 H                     6.99573   4.33205  -1.26607 
 H                     9.4136    4.12532  -1.72898 
 H                     7.24426   0.63458   0.94908 
 H                     5.17441   0.37686  -0.02922 
 
 ITRead=  0  0  0  0  0  0  0  0  0  0  0  0  0  0  0  0  0  0  0  0
 ITRead=  0  0  0  0  0  0  0  0  0  0  0  0
 MicOpt= -1 -1 -1 -1 -1 -1 -1 -1 -1 -1 -1 -1 -1 -1 -1 -1 -1 -1 -1 -1
 MicOpt= -1 -1 -1 -1 -1 -1 -1 -1 -1 -1 -1 -1
 NAtoms=     32 NQM=       32 NQMF=       0 NMMI=      0 NMMIF=      0
                NMic=       0 NMicF=      0.
                    Isotopes and Nuclear Properties:
 (Nuclear quadrupole moments (NQMom) in fm**2, nuclear magnetic moments (NMagM)
  in nuclear magnetons)

  Atom         1           2           3           4           5           6           7           8           9          10
 IAtWgt=          12          14          12          12          12          12          12          12          12          12
 AtmWgt=  12.0000000  14.0030740  12.0000000  12.0000000  12.0000000  12.0000000  12.0000000  12.0000000  12.0000000  12.0000000
 NucSpn=           0           2           0           0           0           0           0           0           0           0
 AtZEff=  -0.0000000  -0.0000000  -0.0000000  -0.0000000  -0.0000000  -0.0000000  -0.0000000  -0.0000000  -0.0000000  -0.0000000
 NQMom=    0.0000000   2.0440000   0.0000000   0.0000000   0.0000000   0.0000000   0.0000000   0.0000000   0.0000000   0.0000000
 NMagM=    0.0000000   0.4037610   0.0000000   0.0000000   0.0000000   0.0000000   0.0000000   0.0000000   0.0000000   0.0000000
 AtZNuc=   6.0000000   7.0000000   6.0000000   6.0000000   6.0000000   6.0000000   6.0000000   6.0000000   6.0000000   6.0000000

  Atom        11          12          13          14          15          16          17          18          19          20
 IAtWgt=          12          12          32          19          16          16          14          12          12           1
 AtmWgt=  12.0000000  12.0000000  31.9720718  18.9984032  15.9949146  15.9949146  14.0030740  12.0000000  12.0000000   1.0078250
 NucSpn=           0           0           0           1           0           0           2           0           0           1
 AtZEff=  -0.0000000  -0.0000000  -0.0000000  -0.0000000  -0.0000000  -0.0000000  -0.0000000  -0.0000000  -0.0000000  -0.0000000
 NQMom=    0.0000000   0.0000000   0.0000000   0.0000000   0.0000000   0.0000000   2.0440000   0.0000000   0.0000000   0.0000000
 NMagM=    0.0000000   0.0000000   0.0000000   2.6288670   0.0000000   0.0000000   0.4037610   0.0000000   0.0000000   2.7928460
 AtZNuc=   6.0000000   6.0000000  16.0000000   9.0000000   8.0000000   8.0000000   7.0000000   6.0000000   6.0000000   1.0000000

  Atom        21          22          23          24          25          26          27          28          29          30
 IAtWgt=           1           1           1           1           1           1           1           1           1           1
 AtmWgt=   1.0078250   1.0078250   1.0078250   1.0078250   1.0078250   1.0078250   1.0078250   1.0078250   1.0078250   1.0078250
 NucSpn=           1           1           1           1           1           1           1           1           1           1
 AtZEff=  -0.0000000  -0.0000000  -0.0000000  -0.0000000  -0.0000000  -0.0000000  -0.0000000  -0.0000000  -0.0000000  -0.0000000
 NQMom=    0.0000000   0.0000000   0.0000000   0.0000000   0.0000000   0.0000000   0.0000000   0.0000000   0.0000000   0.0000000
 NMagM=    2.7928460   2.7928460   2.7928460   2.7928460   2.7928460   2.7928460   2.7928460   2.7928460   2.7928460   2.7928460
 AtZNuc=   1.0000000   1.0000000   1.0000000   1.0000000   1.0000000   1.0000000   1.0000000   1.0000000   1.0000000   1.0000000

  Atom        31          32
 IAtWgt=           1           1
 AtmWgt=   1.0078250   1.0078250
 NucSpn=           1           1
 AtZEff=  -0.0000000  -0.0000000
 NQMom=    0.0000000   0.0000000
 NMagM=    2.7928460   2.7928460
 AtZNuc=   1.0000000   1.0000000
 Leave Link  101 at Fri Oct  4 16:21:40 2024, MaxMem=  2097152000 cpu:              10.6 elap:               0.7
 (Enter /uufs/chpc.utah.edu/sys/installdir/gaussian16/C01/AVX/g16/l103.exe)

 GradGradGradGradGradGradGradGradGradGradGradGradGradGradGradGradGradGrad
 Berny optimization.
 Initialization pass.
                           ----------------------------
                           !    Initial Parameters    !
                           ! (Angstroms and Degrees)  !
 --------------------------                            --------------------------
 ! Name  Definition              Value          Derivative Info.                !
 --------------------------------------------------------------------------------
 ! R1    R(1,2)                  1.4594         estimate D2E/DX2                !
 ! R2    R(1,20)                 1.0956         estimate D2E/DX2                !
 ! R3    R(1,21)                 1.0955         estimate D2E/DX2                !
 ! R4    R(1,22)                 1.0957         estimate D2E/DX2                !
 ! R5    R(2,3)                  1.4599         estimate D2E/DX2                !
 ! R6    R(2,4)                  1.3953         estimate D2E/DX2                !
 ! R7    R(3,23)                 1.0955         estimate D2E/DX2                !
 ! R8    R(3,24)                 1.0956         estimate D2E/DX2                !
 ! R9    R(3,25)                 1.0958         estimate D2E/DX2                !
 ! R10   R(4,5)                  1.402          estimate D2E/DX2                !
 ! R11   R(4,19)                 1.4109         estimate D2E/DX2                !
 ! R12   R(5,6)                  1.3974         estimate D2E/DX2                !
 ! R13   R(5,26)                 1.0859         estimate D2E/DX2                !
 ! R14   R(6,7)                  1.3925         estimate D2E/DX2                !
 ! R15   R(6,27)                 1.0871         estimate D2E/DX2                !
 ! R16   R(7,8)                  1.4004         estimate D2E/DX2                !
 ! R17   R(7,28)                 1.0872         estimate D2E/DX2                !
 ! R18   R(8,9)                  1.4821         estimate D2E/DX2                !
 ! R19   R(8,19)                 1.4159         estimate D2E/DX2                !
 ! R20   R(9,10)                 1.4071         estimate D2E/DX2                !
 ! R21   R(9,18)                 1.4019         estimate D2E/DX2                !
 ! R22   R(10,11)                1.3943         estimate D2E/DX2                !
 ! R23   R(10,29)                1.088          estimate D2E/DX2                !
 ! R24   R(11,12)                1.3829         estimate D2E/DX2                !
 ! R25   R(11,30)                1.0849         estimate D2E/DX2                !
 ! R26   R(12,13)                1.7772         estimate D2E/DX2                !
 ! R27   R(12,17)                1.3557         estimate D2E/DX2                !
 ! R28   R(13,14)                1.5864         estimate D2E/DX2                !
 ! R29   R(13,15)                1.4509         estimate D2E/DX2                !
 ! R30   R(13,16)                1.4521         estimate D2E/DX2                !
 ! R31   R(17,18)                1.3571         estimate D2E/DX2                !
 ! R32   R(18,31)                1.088          estimate D2E/DX2                !
 ! R33   R(19,32)                1.086          estimate D2E/DX2                !
 ! A1    A(2,1,20)             111.7446         estimate D2E/DX2                !
 ! A2    A(2,1,21)             111.1704         estimate D2E/DX2                !
 ! A3    A(2,1,22)             110.6874         estimate D2E/DX2                !
 ! A4    A(20,1,21)            107.1871         estimate D2E/DX2                !
 ! A5    A(20,1,22)            106.3251         estimate D2E/DX2                !
 ! A6    A(21,1,22)            109.5466         estimate D2E/DX2                !
 ! A7    A(1,2,3)              116.8483         estimate D2E/DX2                !
 ! A8    A(1,2,4)              120.346          estimate D2E/DX2                !
 ! A9    A(3,2,4)              120.2551         estimate D2E/DX2                !
 ! A10   A(2,3,23)             111.8917         estimate D2E/DX2                !
 ! A11   A(2,3,24)             110.6695         estimate D2E/DX2                !
 ! A12   A(2,3,25)             111.151          estimate D2E/DX2                !
 ! A13   A(23,3,24)            106.4079         estimate D2E/DX2                !
 ! A14   A(23,3,25)            107.0391         estimate D2E/DX2                !
 ! A15   A(24,3,25)            109.5001         estimate D2E/DX2                !
 ! A16   A(2,4,5)              122.2287         estimate D2E/DX2                !
 ! A17   A(2,4,19)             121.9094         estimate D2E/DX2                !
 ! A18   A(5,4,19)             115.86           estimate D2E/DX2                !
 ! A19   A(4,5,6)              121.992          estimate D2E/DX2                !
 ! A20   A(4,5,26)             121.004          estimate D2E/DX2                !
 ! A21   A(6,5,26)             117.0008         estimate D2E/DX2                !
 ! A22   A(5,6,7)              120.3129         estimate D2E/DX2                !
 ! A23   A(5,6,27)             119.679          estimate D2E/DX2                !
 ! A24   A(7,6,27)             120.0063         estimate D2E/DX2                !
 ! A25   A(6,7,8)              120.7685         estimate D2E/DX2                !
 ! A26   A(6,7,28)             118.1475         estimate D2E/DX2                !
 ! A27   A(8,7,28)             121.0834         estimate D2E/DX2                !
 ! A28   A(7,8,9)              121.7581         estimate D2E/DX2                !
 ! A29   A(7,8,19)             117.1195         estimate D2E/DX2                !
 ! A30   A(9,8,19)             121.0483         estimate D2E/DX2                !
 ! A31   A(8,9,10)             121.7643         estimate D2E/DX2                !
 ! A32   A(8,9,18)             122.4409         estimate D2E/DX2                !
 ! A33   A(10,9,18)            115.7062         estimate D2E/DX2                !
 ! A34   A(9,10,11)            121.0348         estimate D2E/DX2                !
 ! A35   A(9,10,29)            120.6762         estimate D2E/DX2                !
 ! A36   A(11,10,29)           118.2274         estimate D2E/DX2                !
 ! A37   A(10,11,12)           117.2635         estimate D2E/DX2                !
 ! A38   A(10,11,30)           121.1562         estimate D2E/DX2                !
 ! A39   A(12,11,30)           121.5424         estimate D2E/DX2                !
 ! A40   A(11,12,13)           119.8697         estimate D2E/DX2                !
 ! A41   A(11,12,17)           125.0256         estimate D2E/DX2                !
 ! A42   A(13,12,17)           115.002          estimate D2E/DX2                !
 ! A43   A(12,13,14)           107.702          estimate D2E/DX2                !
 ! A44   A(12,13,15)           107.5899         estimate D2E/DX2                !
 ! A45   A(12,13,16)           107.7702         estimate D2E/DX2                !
 ! A46   A(14,13,15)           105.6021         estimate D2E/DX2                !
 ! A47   A(14,13,16)           105.7943         estimate D2E/DX2                !
 ! A48   A(15,13,16)           121.6869         estimate D2E/DX2                !
 ! A49   A(12,17,18)           115.498          estimate D2E/DX2                !
 ! A50   A(9,18,17)            125.3636         estimate D2E/DX2                !
 ! A51   A(9,18,31)            121.089          estimate D2E/DX2                !
 ! A52   A(17,18,31)           113.5412         estimate D2E/DX2                !
 ! A53   A(4,19,8)             123.934          estimate D2E/DX2                !
 ! A54   A(4,19,32)            118.284          estimate D2E/DX2                !
 ! A55   A(8,19,32)            117.7628         estimate D2E/DX2                !
 ! D1    D(20,1,2,3)            16.8579         estimate D2E/DX2                !
 ! D2    D(20,1,2,4)           178.7964         estimate D2E/DX2                !
 ! D3    D(21,1,2,3)          -102.8527         estimate D2E/DX2                !
 ! D4    D(21,1,2,4)            59.0858         estimate D2E/DX2                !
 ! D5    D(22,1,2,3)           135.158          estimate D2E/DX2                !
 ! D6    D(22,1,2,4)           -62.9034         estimate D2E/DX2                !
 ! D7    D(1,2,3,23)           -11.6696         estimate D2E/DX2                !
 ! D8    D(1,2,3,24)          -130.1568         estimate D2E/DX2                !
 ! D9    D(1,2,3,25)           107.9389         estimate D2E/DX2                !
 ! D10   D(4,2,3,23)          -173.6254         estimate D2E/DX2                !
 ! D11   D(4,2,3,24)            67.8873         estimate D2E/DX2                !
 ! D12   D(4,2,3,25)           -54.017          estimate D2E/DX2                !
 ! D13   D(1,2,4,5)              4.9407         estimate D2E/DX2                !
 ! D14   D(1,2,4,19)          -175.576          estimate D2E/DX2                !
 ! D15   D(3,2,4,5)            166.2635         estimate D2E/DX2                !
 ! D16   D(3,2,4,19)           -14.2532         estimate D2E/DX2                !
 ! D17   D(2,4,5,6)            179.8766         estimate D2E/DX2                !
 ! D18   D(2,4,5,26)            -0.7983         estimate D2E/DX2                !
 ! D19   D(19,4,5,6)             0.3641         estimate D2E/DX2                !
 ! D20   D(19,4,5,26)          179.6892         estimate D2E/DX2                !
 ! D21   D(2,4,19,8)           179.5183         estimate D2E/DX2                !
 ! D22   D(2,4,19,32)            1.1501         estimate D2E/DX2                !
 ! D23   D(5,4,19,8)            -0.9674         estimate D2E/DX2                !
 ! D24   D(5,4,19,32)         -179.3356         estimate D2E/DX2                !
 ! D25   D(4,5,6,7)             -0.2153         estimate D2E/DX2                !
 ! D26   D(4,5,6,27)           179.2924         estimate D2E/DX2                !
 ! D27   D(26,5,6,7)          -179.566          estimate D2E/DX2                !
 ! D28   D(26,5,6,27)           -0.0583         estimate D2E/DX2                !
 ! D29   D(5,6,7,8)              0.6244         estimate D2E/DX2                !
 ! D30   D(5,6,7,28)          -179.636          estimate D2E/DX2                !
 ! D31   D(27,6,7,8)          -178.8817         estimate D2E/DX2                !
 ! D32   D(27,6,7,28)            0.8579         estimate D2E/DX2                !
 ! D33   D(6,7,8,9)            175.748          estimate D2E/DX2                !
 ! D34   D(6,7,8,19)            -1.1501         estimate D2E/DX2                !
 ! D35   D(28,7,8,9)            -3.9839         estimate D2E/DX2                !
 ! D36   D(28,7,8,19)          179.118          estimate D2E/DX2                !
 ! D37   D(7,8,9,10)           -33.4929         estimate D2E/DX2                !
 ! D38   D(7,8,9,18)           150.0766         estimate D2E/DX2                !
 ! D39   D(19,8,9,10)          143.2844         estimate D2E/DX2                !
 ! D40   D(19,8,9,18)          -33.1461         estimate D2E/DX2                !
 ! D41   D(7,8,19,4)             1.3643         estimate D2E/DX2                !
 ! D42   D(7,8,19,32)          179.7404         estimate D2E/DX2                !
 ! D43   D(9,8,19,4)          -175.5572         estimate D2E/DX2                !
 ! D44   D(9,8,19,32)            2.8189         estimate D2E/DX2                !
 ! D45   D(8,9,10,11)         -174.0035         estimate D2E/DX2                !
 ! D46   D(8,9,10,29)            3.0935         estimate D2E/DX2                !
 ! D47   D(18,9,10,11)           2.6534         estimate D2E/DX2                !
 ! D48   D(18,9,10,29)         179.7505         estimate D2E/DX2                !
 ! D49   D(8,9,18,17)          173.2595         estimate D2E/DX2                !
 ! D50   D(8,9,18,31)           -5.7796         estimate D2E/DX2                !
 ! D51   D(10,9,18,17)          -3.3725         estimate D2E/DX2                !
 ! D52   D(10,9,18,31)         177.5883         estimate D2E/DX2                !
 ! D53   D(9,10,11,12)          -0.0157         estimate D2E/DX2                !
 ! D54   D(9,10,11,30)         177.7797         estimate D2E/DX2                !
 ! D55   D(29,10,11,12)       -177.182          estimate D2E/DX2                !
 ! D56   D(29,10,11,30)          0.6134         estimate D2E/DX2                !
 ! D57   D(10,11,12,13)        173.6614         estimate D2E/DX2                !
 ! D58   D(10,11,12,17)         -2.4637         estimate D2E/DX2                !
 ! D59   D(30,11,12,13)         -4.125          estimate D2E/DX2                !
 ! D60   D(30,11,12,17)        179.75           estimate D2E/DX2                !
 ! D61   D(11,12,13,14)       -177.9622         estimate D2E/DX2                !
 ! D62   D(11,12,13,15)        -64.549          estimate D2E/DX2                !
 ! D63   D(11,12,13,16)         68.3144         estimate D2E/DX2                !
 ! D64   D(17,12,13,14)         -1.463          estimate D2E/DX2                !
 ! D65   D(17,12,13,15)        111.9502         estimate D2E/DX2                !
 ! D66   D(17,12,13,16)       -115.1863         estimate D2E/DX2                !
 ! D67   D(11,12,17,18)          1.9043         estimate D2E/DX2                !
 ! D68   D(13,12,17,18)       -174.3883         estimate D2E/DX2                !
 ! D69   D(12,17,18,9)           1.1874         estimate D2E/DX2                !
 ! D70   D(12,17,18,31)       -179.7101         estimate D2E/DX2                !
 --------------------------------------------------------------------------------
 Trust Radius=3.00D-01 FncErr=1.00D-07 GrdErr=1.00D-06 EigMax=2.50D+02 EigMin=1.00D-04
 Number of steps in this run=    168 maximum allowed number of steps=    192.
 GradGradGradGradGradGradGradGradGradGradGradGradGradGradGradGradGradGrad

 Leave Link  103 at Fri Oct  4 16:21:40 2024, MaxMem=  2097152000 cpu:               0.2 elap:               0.0
 (Enter /uufs/chpc.utah.edu/sys/installdir/gaussian16/C01/AVX/g16/l202.exe)
                          Input orientation:                          
 ---------------------------------------------------------------------
 Center     Atomic      Atomic             Coordinates (Angstroms)
 Number     Number       Type             X           Y           Z
 ---------------------------------------------------------------------
      1          6           0        1.064760    0.076540    0.133200
      2          7           0        2.524100    0.074580    0.140370
      3          6           0        3.183800   -1.162560   -0.266700
      4          6           0        3.230620    1.277760    0.150130
      5          6           0        2.589830    2.520250    0.255610
      6          6           0        3.302560    3.722220    0.267440
      7          6           0        4.692110    3.716250    0.177610
      8          6           0        5.397330    2.511960    0.061140
      9          6           0        6.866880    2.483790   -0.128940
     10          6           0        7.538430    3.480860   -0.860160
     11          6           0        8.901340    3.375710   -1.135130
     12          6           0        9.558850    2.255740   -0.660090
     13         16           0       11.253120    1.966020   -1.111660
     14          9           0       11.697930    0.590460   -0.458580
     15          8           0       11.293650    1.748370   -2.545580
     16          8           0       12.063140    2.987450   -0.472010
     17          7           0        8.990890    1.279780    0.090210
     18          6           0        7.665920    1.432090    0.340940
     19          6           0        4.638430    1.316650    0.064870
     20          1           0        0.657630   -0.940240    0.104510
     21          1           0        0.674140    0.606470   -0.742410
     22          1           0        0.673830    0.539170    1.046220
     23          1           0        2.479270   -1.998970   -0.331440
     24          1           0        3.944250   -1.454480    0.465950
     25          1           0        3.648190   -1.056800   -1.253530
     26          1           0        1.508030    2.587900    0.321220
     27          1           0        2.766450    4.665220    0.339160
     28          1           0        5.211380    4.671280    0.196150
     29          1           0        6.995730    4.332050   -1.266070
     30          1           0        9.413600    4.125320   -1.728980
     31          1           0        7.244260    0.634580    0.949080
     32          1           0        5.174410    0.376860   -0.029220
 ---------------------------------------------------------------------
                    Distance matrix (angstroms):
                    1          2          3          4          5
     1  C    0.000000
     2  N    1.459359   0.000000
     3  C    2.487091   1.459940   0.000000
     4  C    2.476725   1.395316   2.476106   0.000000
     5  C    2.883148   2.449266   3.766789   1.401970   0.000000
     6  C    4.279807   3.731946   4.915332   2.448330   1.397446
     7  C    5.138787   4.238327   5.125934   2.843051   2.419934
     8  C    4.970677   3.768627   4.302243   2.495156   2.814239
     9  C    6.287143   4.973586   5.184585   3.841195   4.294457
    10  C    7.381366   6.143884   6.393461   4.942829   5.162979
    11  C    8.596812   7.293391   7.351213   6.181452   6.519289
    12  C    8.804986   7.408502   7.244363   6.454409   7.033897
    13  S   10.436594   9.018920   8.695740   8.150234   8.788014
    14  F   10.662018   9.207824   8.694844   8.516939   9.337647
    15  O   10.705189   9.323138   8.912714   8.514739   9.175998
    16  O   11.393158   9.992653   9.803439   9.017955   9.512692
    17  N    8.017055   6.578328   6.309889   5.760582   6.522246
    18  C    6.742105   5.321783   5.214483   4.442084   5.192115
    19  C    3.783340   2.453330   2.893505   1.410925   2.383652
    20  H    1.095637   2.124819   2.562959   3.397335   3.966260
    21  H    1.095492   2.117678   3.107114   2.789776   2.885908
    22  H    1.095654   2.111849   3.304481   2.808143   2.867193
    23  H    2.554304   2.127022   1.095507   3.396085   4.558531
    24  H    3.278141   2.112073   1.095572   2.841504   4.204423
    25  H    3.143500   2.118149   1.095754   2.755866   4.024042
    26  H    2.557102   2.716962   4.149675   2.170957   1.085897
    27  H    4.898383   4.601329   5.874033   3.424335   2.153850
    28  H    6.189512   5.324870   6.193464   3.929568   3.391606
    29  H    7.432612   6.332424   6.761678   5.050778   5.001008
    30  H    9.463798   8.207812   8.301226   7.061791   7.285512
    31  H    6.258058   4.821568   4.603821   4.142621   5.069553
    32  H    4.123808   2.672878   2.527595   2.149909   3.369763
                    6          7          8          9         10
     6  C    0.000000
     7  C    1.392463   0.000000
     8  C    2.428034   1.400434   0.000000
     9  C    3.794101   2.518443   1.482060   0.000000
    10  C    4.390026   3.038735   2.524256   1.407057   0.000000
    11  C    5.782180   4.422315   3.802001   2.438640   1.394342
    12  C    6.492460   5.149756   4.231320   2.753331   2.371296
    13  S    8.258181   6.911756   5.996981   4.524702   4.019566
    14  F    8.989842   7.697845   6.607559   5.199270   5.081055
    15  O    8.698660   7.407337   6.491891   5.096792   4.465853
    16  O    8.822383   7.435404   6.703981   5.231872   4.568054
    17  N    6.193062   4.942017   3.799051   2.451344   2.803140
    18  C    4.928388   3.753346   2.528024   1.401901   2.378309
    19  C    2.759049   2.402847   1.415878   2.523047   3.734901
    20  H    5.362904   6.161597   5.863815   7.094594   8.235419
    21  H    4.199558   5.163453   5.156075   6.500054   7.442745
    22  H    4.201015   5.195661   5.212843   6.596697   7.707824
    23  H    5.811065   6.149759   5.386806   6.275927   7.476843
    24  H    5.220095   5.232483   4.243579   4.940206   6.247742
    25  H    5.027111   5.091163   4.186155   4.915328   5.989914
    26  H    2.123655   3.381148   3.898726   5.378732   6.209570
    27  H    1.087109   2.152861   3.411063   4.668113   5.060916
    28  H    2.132930   1.087229   2.171513   2.762513   2.819229
    29  H    4.045127   2.787488   2.762082   2.173875   1.088031
    30  H    6.441505   5.108316   4.683790   3.426446   2.164819
    31  H    5.053232   4.074963   2.779234   2.173504   3.385439
    32  H    3.844901   3.380372   2.148607   2.704358   3.989219
                   11         12         13         14         15
    11  C    0.000000
    12  C    1.382865   0.000000
    13  S    2.742015   1.777190   0.000000
    14  F    4.004529   2.718350   1.586359   0.000000
    15  O    3.218812   2.611901   1.450910   2.420696   0.000000
    16  O    3.253837   2.615768   1.452103   2.424690   2.535178
    17  N    2.429486   1.355738   2.652000   2.846822   3.531242
    18  C    2.735453   2.294263   3.906806   4.195793   4.646768
    19  C    4.883864   5.061422   6.749817   7.116031   7.161898
    20  H    9.387379   9.488447  11.053951  11.160123  11.286121
    21  H    8.689634   9.036866  10.672373  11.027455  10.831867
    22  H    8.971966   9.208783  10.890993  11.126448  11.275805
    23  H    8.412852   8.266258   9.659727   9.576273   9.830476
    24  H    7.104008   6.823301   8.222424   8.071932   8.563950
    25  H    6.874354   6.801543   8.184896   8.254921   8.245692
    26  H    7.576453   8.117204   9.869481  10.413065  10.231408
    27  H    6.439972   7.276042   9.022978   9.849436   9.462710
    28  H    4.131176   5.046630   6.747697   7.691365   7.283852
    29  H    2.136137   3.353783   4.873121   6.063186   5.175390
    30  H    1.084889   2.158461   2.903015   4.396284   3.138680
    31  H    3.821471   3.251909   4.700036   4.671042   5.463583
    32  H    4.909801   4.811601   6.375564   6.541123   6.757086
                   16         17         18         19         20
    16  O    0.000000
    17  N    3.559628   0.000000
    18  C    4.734509   1.357059   0.000000
    19  C    7.629294   4.352690   3.042242   0.000000
    20  H   12.076621   8.623915   7.402701   4.576231   0.000000
    21  H   11.638363   8.385400   7.123221   4.107512   1.763479
    22  H   11.747999   8.404519   7.084070   4.157593   1.753777
    23  H   10.804384   7.302683   6.255046   3.976477   2.151589
    24  H    9.301983   5.752037   4.711554   2.884773   3.346185
    25  H    9.368998   5.984120   4.987892   2.889986   3.286534
    26  H   10.592412   7.599851   6.265452   3.388391   3.635645
    27  H    9.481632   7.089911   5.870089   3.846097   5.993610
    28  H    7.087195   5.079192   4.066704   3.405738   7.227323
    29  H    5.302558   3.890567   3.382514   4.052271   8.357454
    30  H    3.145598   3.403709   3.820006   5.823124  10.280496
    31  H    5.547711   2.050526   1.087958   2.835030   6.824738
    32  H    7.380098   3.923652   2.730962   1.085971   4.706797
                   21         22         23         24         25
    21  H    0.000000
    22  H    1.789896   0.000000
    23  H    3.196202   3.405835   0.000000
    24  H    4.049848   3.873887   1.754556   0.000000
    25  H    3.445676   4.084457   1.761905   1.789529   0.000000
    26  H    2.398488   2.327834   4.733777   4.721965   4.510428
    27  H    4.692655   4.680094   6.703999   6.233299   6.004635
    28  H    6.163613   6.195669   7.227379   6.261258   6.111958
    29  H    7.356403   7.726516   7.832864   6.767226   6.343965
    30  H    9.472792   9.846105   9.356547   8.115767   7.766619
    31  H    6.784424   6.571841   5.592893   3.935435   4.543564
    32  H    4.562213   4.630133   3.605508   2.261038   2.425626
                   26         27         28         29         30
    26  H    0.000000
    27  H    2.428827   0.000000
    28  H    4.250990   2.449116   0.000000
    29  H    5.972972   4.535921   2.331752   0.000000
    30  H    8.310537   6.982356   4.654337   2.470449   0.000000
    31  H    6.092126   6.055480   4.581970   4.317400   4.905436
    32  H    4.295794   4.931937   4.300489   4.526647   5.908542
                   31         32
    31  H    0.000000
    32  H    2.303860   0.000000
 Stoichiometry    C13H13FN2O2S
 Framework group  C1[X(C13H13FN2O2S)]
 Deg. of freedom    90
 Full point group                 C1      NOp   1
 Largest Abelian subgroup         C1      NOp   1
 Largest concise Abelian subgroup C1      NOp   1
                         Standard orientation:                         
 ---------------------------------------------------------------------
 Center     Atomic      Atomic             Coordinates (Angstroms)
 Number     Number       Type             X           Y           Z
 ---------------------------------------------------------------------
      1          6           0        6.057671   -1.072938    0.243378
      2          7           0        4.621132   -1.229165    0.039230
      3          6           0        4.053640   -2.543588    0.325010
      4          6           0        3.794070   -0.108058   -0.038191
      5          6           0        4.302623    1.198381   -0.027651
      6          6           0        3.469848    2.317706   -0.107988
      7          6           0        2.089730    2.161252   -0.206720
      8          6           0        1.512054    0.885536   -0.214195
      9          6           0        0.042359    0.694794   -0.224930
     10          6           0       -0.825179    1.587042    0.431638
     11          6           0       -2.192531    1.327920    0.517622
     12          6           0       -2.654570    0.163202   -0.067414
     13         16           0       -4.351332   -0.321029    0.144537
     14          9           0       -4.552271   -1.710524   -0.594017
     15          8           0       -4.556185   -0.595310    1.554482
     16          8           0       -5.177413    0.632115   -0.574985
     17          7           0       -1.888894   -0.718325   -0.756382
     18          6           0       -0.567298   -0.417268   -0.822393
     19          6           0        2.391631   -0.221699   -0.142885
     20          1           0        6.566793   -2.041241    0.303414
     21          1           0        6.268902   -0.537795    1.175637
     22          1           0        6.512183   -0.537632   -0.597649
     23          1           0        4.831169   -3.302518    0.465044
     24          1           0        3.433062   -2.886749   -0.510096
     25          1           0        3.454534   -2.524646    1.242283
     26          1           0        5.369583    1.382627    0.054945
     27          1           0        3.903760    3.314200   -0.085013
     28          1           0        1.475584    3.055939   -0.273258
     29          1           0       -0.437587    2.475112    0.926527
     30          1           0       -2.857838    1.996289    1.053936
     31          1           0        0.015902   -1.142293   -1.386192
     32          1           0        1.954548   -1.215827   -0.143610
 ---------------------------------------------------------------------
 Rotational constants (GHZ):           0.9213808           0.1296135           0.1181393
 Leave Link  202 at Fri Oct  4 16:21:40 2024, MaxMem=  2097152000 cpu:               0.1 elap:               0.0
 (Enter /uufs/chpc.utah.edu/sys/installdir/gaussian16/C01/AVX/g16/l301.exe)
 Standard basis: 6-31G(d) (6D, 7F)
 Ernie: Thresh=  0.10000D-02 Tol=  0.10000D-05 Strict=F.
 There are   315 symmetry adapted cartesian basis functions of A   symmetry.
 There are   315 symmetry adapted basis functions of A   symmetry.
   315 basis functions,   608 primitive gaussians,   315 cartesian basis functions
    73 alpha electrons       73 beta electrons
       nuclear repulsion energy      1493.3429552597 Hartrees.
 IExCor= 3731 DFT=T Ex+Corr=APFD ExCW=0 ScaHFX=  0.229450
 ScaDFX=  1.000000  1.000000  1.000000  1.000000 ScalE2=  1.000000  1.000000
 IRadAn=      5 IRanWt=     -1 IRanGd=            0 ICorTp=0 IEmpDi=211
 NAtoms=   32 NActive=   32 NUniq=   32 SFac= 1.00D+00 NAtFMM=   60 NAOKFM=F Big=F
 Integral buffers will be    131072 words long.
 Raffenetti 2 integral format.
 Two-electron integral symmetry is turned on.
 R6APFD:  NTU= -4 IXU= 1 FactS= 1.050
 R6Disp:  Petersson-Frisch Dispersion energy=       -0.0262820017 Hartrees.
 Nuclear repulsion after empirical dispersion term =     1493.3166732580 Hartrees.
 Leave Link  301 at Fri Oct  4 16:21:41 2024, MaxMem=  2097152000 cpu:               0.9 elap:               0.1
 (Enter /uufs/chpc.utah.edu/sys/installdir/gaussian16/C01/AVX/g16/l302.exe)
 NPDir=0 NMtPBC=     1 NCelOv=     1 NCel=       1 NClECP=     1 NCelD=      1
         NCelK=      1 NCelE2=     1 NClLst=     1 CellRange=     0.0.
 One-electron integrals computed using PRISM.
 One-electron integral symmetry used in STVInt
 NBasis=   315 RedAO= T EigKep=  3.91D-04  NBF=   315
 NBsUse=   315 1.00D-06 EigRej= -1.00D+00 NBFU=   315
 Precomputing XC quadrature grid using
 IXCGrd= 4 IRadAn=           5 IRanWt=          -1 IRanGd=           0 AccXCQ= 0.00D+00.
 Generated NRdTot=       0 NPtTot=           0 NUsed=           0 NTot=          32
 NSgBfM=   311   311   311   311   311 MxSgAt=    32 MxSgA2=    32.
 Leave Link  302 at Fri Oct  4 16:21:41 2024, MaxMem=  2097152000 cpu:               6.5 elap:               0.4
 (Enter /uufs/chpc.utah.edu/sys/installdir/gaussian16/C01/AVX/g16/l303.exe)
 DipDrv:  MaxL=1.
 Leave Link  303 at Fri Oct  4 16:21:41 2024, MaxMem=  2097152000 cpu:               0.9 elap:               0.1
 (Enter /uufs/chpc.utah.edu/sys/installdir/gaussian16/C01/AVX/g16/l401.exe)
 ExpMin= 1.17D-01 ExpMax= 2.19D+04 ExpMxC= 3.30D+03 IAcc=3 IRadAn=         5 AccDes= 0.00D+00
 Harris functional with IExCor= 3731 and IRadAn=       5 diagonalized for initial guess.
 HarFok:  IExCor= 3731 AccDes= 0.00D+00 IRadAn=         5 IDoV= 1 UseB2=F ITyADJ=14
 ICtDFT=  3500011 ScaDFX=  1.000000  1.000000  1.000000  1.000000
 FoFCou: FMM=F IPFlag=           0 FMFlag=      100000 FMFlg1=           0
         NFxFlg=           0 DoJE=T BraDBF=F KetDBF=T FulRan=T
         wScrn=  0.000000 ICntrl=       500 IOpCl=  0 I1Cent=   200000004 NGrid=           0
         NMat0=    1 NMatS0=      1 NMatT0=    0 NMatD0=    1 NMtDS0=    0 NMtDT0=    0
 Petite list used in FoFCou.
 Harris En= -1229.38491676640    
 JPrj=0 DoOrth=F DoCkMO=F.
 Leave Link  401 at Fri Oct  4 16:21:43 2024, MaxMem=  2097152000 cpu:              29.3 elap:               1.9
 (Enter /uufs/chpc.utah.edu/sys/installdir/gaussian16/C01/AVX/g16/l502.exe)
 Integral symmetry usage will be decided dynamically.
 Closed shell SCF:
 Using DIIS extrapolation, IDIIS=  1040.
 NGot=  2097152000 LenX=  2096944308 LenY=  2096844642
 Requested convergence on RMS density matrix=1.00D-08 within 128 cycles.
 Requested convergence on MAX density matrix=1.00D-06.
 Requested convergence on             energy=1.00D-06.
 No special actions if energy rises.
 Fock matrices will be formed incrementally for  20 cycles.
 Integral accuracy reduced to 1.0D-05 until final iterations.

 Cycle   1  Pass 0  IDiag  1:
 FoFJK:  IHMeth= 1 ICntrl=       0 DoSepK=F KAlg= 0 I1Cent=           0 FoldK=F
 IRaf= 730000000 NMat=       1 IRICut=       1 DoRegI=T DoRafI=F ISym2E= 0 IDoP0=0 IntGTp=1.
 FoFCou: FMM=F IPFlag=           0 FMFlag=      100000 FMFlg1=           0
         NFxFlg=           0 DoJE=F BraDBF=F KetDBF=F FulRan=T
         wScrn=  0.000000 ICntrl=         0 IOpCl=  0 I1Cent=           0 NGrid=           0
         NMat0=    1 NMatS0=      1 NMatT0=    0 NMatD0=    1 NMtDS0=    0 NMtDT0=    0
 Symmetry not used in FoFCou.
 E= -1259.89272125209    
 DIIS: error= 7.88D-02 at cycle   1 NSaved=   1.
 NSaved= 1 IEnMin= 1 EnMin= -1259.89272125209     IErMin= 1 ErrMin= 7.88D-02
 ErrMax= 7.88D-02  0.00D+00 EMaxC= 1.00D-01 BMatC= 1.22D+00 BMatP= 1.22D+00
 IDIUse=3 WtCom= 2.12D-01 WtEn= 7.88D-01
 Coeff-Com:  0.100D+01
 Coeff-En:   0.100D+01
 Coeff:      0.100D+01
 Gap=     0.204 Goal=   None    Shift=    0.000
 GapD=    0.204 DampG=1.000 DampE=0.500 DampFc=0.5000 IDamp=-1.
 Damping current iteration by 5.00D-01
 RMSDP=5.84D-03 MaxDP=5.99D-01              OVMax= 2.96D-01

 Cycle   2  Pass 0  IDiag  1:
 RMSU=  2.92D-03    CP:  1.00D+00
 E= -1260.01339800816     Delta-E=       -0.120676756072 Rises=F Damp=T
 DIIS: error= 4.06D-02 at cycle   2 NSaved=   2.
 NSaved= 2 IEnMin= 2 EnMin= -1260.01339800816     IErMin= 2 ErrMin= 4.06D-02
 ErrMax= 4.06D-02  0.00D+00 EMaxC= 1.00D-01 BMatC= 2.44D-01 BMatP= 1.22D+00
 IDIUse=3 WtCom= 5.94D-01 WtEn= 4.06D-01
 Coeff-Com: -0.900D-01 0.109D+01
 Coeff-En:   0.310D+00 0.690D+00
 Coeff:      0.726D-01 0.927D+00
 Gap=     0.259 Goal=   None    Shift=    0.000
 RMSDP=2.30D-03 MaxDP=7.96D-02 DE=-1.21D-01 OVMax= 2.59D-01

 Cycle   3  Pass 0  IDiag  1:
 RMSU=  2.15D-03    CP:  1.01D+00  7.17D-01
 E= -1260.17429576833     Delta-E=       -0.160897760175 Rises=F Damp=F
 DIIS: error= 2.05D-02 at cycle   3 NSaved=   3.
 NSaved= 3 IEnMin= 3 EnMin= -1260.17429576833     IErMin= 3 ErrMin= 2.05D-02
 ErrMax= 2.05D-02  0.00D+00 EMaxC= 1.00D-01 BMatC= 1.78D-01 BMatP= 2.44D-01
 IDIUse=3 WtCom= 7.95D-01 WtEn= 2.05D-01
 Coeff-Com: -0.202D+00 0.600D+00 0.602D+00
 Coeff-En:   0.000D+00 0.195D+00 0.805D+00
 Coeff:     -0.161D+00 0.517D+00 0.644D+00
 Gap=     0.157 Goal=   None    Shift=    0.000
 RMSDP=1.90D-03 MaxDP=6.77D-02 DE=-1.61D-01 OVMax= 1.44D-01

 Cycle   4  Pass 0  IDiag  1:
 RMSU=  1.07D-03    CP:  1.01D+00  1.02D+00  4.01D-01
 E= -1260.28667578123     Delta-E=       -0.112380012895 Rises=F Damp=F
 DIIS: error= 1.08D-02 at cycle   4 NSaved=   4.
 NSaved= 4 IEnMin= 4 EnMin= -1260.28667578123     IErMin= 4 ErrMin= 1.08D-02
 ErrMax= 1.08D-02  0.00D+00 EMaxC= 1.00D-01 BMatC= 4.69D-02 BMatP= 1.78D-01
 IDIUse=3 WtCom= 8.92D-01 WtEn= 1.08D-01
 Coeff-Com: -0.863D-01 0.211D+00 0.402D+00 0.474D+00
 Coeff-En:   0.000D+00 0.000D+00 0.255D+00 0.745D+00
 Coeff:     -0.770D-01 0.188D+00 0.386D+00 0.503D+00
 Gap=     0.149 Goal=   None    Shift=    0.000
 RMSDP=8.08D-04 MaxDP=2.82D-02 DE=-1.12D-01 OVMax= 5.48D-02

 Cycle   5  Pass 0  IDiag  1:
 RMSU=  3.10D-04    CP:  1.01D+00  9.58D-01  6.26D-01  5.02D-01
 E= -1260.32677927563     Delta-E=       -0.040103494403 Rises=F Damp=F
 DIIS: error= 3.10D-03 at cycle   5 NSaved=   5.
 NSaved= 5 IEnMin= 5 EnMin= -1260.32677927563     IErMin= 5 ErrMin= 3.10D-03
 ErrMax= 3.10D-03  0.00D+00 EMaxC= 1.00D-01 BMatC= 2.70D-03 BMatP= 4.69D-02
 IDIUse=3 WtCom= 9.69D-01 WtEn= 3.10D-02
 Coeff-Com: -0.360D-01 0.810D-01 0.194D+00 0.306D+00 0.455D+00
 Coeff-En:   0.000D+00 0.000D+00 0.000D+00 0.000D+00 0.100D+01
 Coeff:     -0.349D-01 0.785D-01 0.188D+00 0.296D+00 0.472D+00
 Gap=     0.144 Goal=   None    Shift=    0.000
 RMSDP=2.17D-04 MaxDP=7.04D-03 DE=-4.01D-02 OVMax= 1.72D-02

 Cycle   6  Pass 0  IDiag  1:
 RMSU=  1.18D-04    CP:  1.01D+00  9.71D-01  6.01D-01  5.87D-01  5.38D-01
 E= -1260.32928746931     Delta-E=       -0.002508193681 Rises=F Damp=F
 DIIS: error= 7.96D-04 at cycle   6 NSaved=   6.
 NSaved= 6 IEnMin= 6 EnMin= -1260.32928746931     IErMin= 6 ErrMin= 7.96D-04
 ErrMax= 7.96D-04  0.00D+00 EMaxC= 1.00D-01 BMatC= 2.01D-04 BMatP= 2.70D-03
 IDIUse=3 WtCom= 9.92D-01 WtEn= 7.96D-03
 Coeff-Com: -0.298D-02 0.478D-02 0.225D-01 0.604D-01 0.255D+00 0.661D+00
 Coeff-En:   0.000D+00 0.000D+00 0.000D+00 0.000D+00 0.537D-01 0.946D+00
 Coeff:     -0.295D-02 0.474D-02 0.223D-01 0.599D-01 0.253D+00 0.663D+00
 Gap=     0.144 Goal=   None    Shift=    0.000
 RMSDP=6.72D-05 MaxDP=1.91D-03 DE=-2.51D-03 OVMax= 4.96D-03

 Cycle   7  Pass 0  IDiag  1:
 RMSU=  3.71D-05    CP:  1.01D+00  9.69D-01  6.09D-01  5.82D-01  6.39D-01
                    CP:  6.40D-01
 E= -1260.32946901824     Delta-E=       -0.000181548927 Rises=F Damp=F
 DIIS: error= 2.70D-04 at cycle   7 NSaved=   7.
 NSaved= 7 IEnMin= 7 EnMin= -1260.32946901824     IErMin= 7 ErrMin= 2.70D-04
 ErrMax= 2.70D-04  0.00D+00 EMaxC= 1.00D-01 BMatC= 3.05D-05 BMatP= 2.01D-04
 IDIUse=3 WtCom= 9.97D-01 WtEn= 2.70D-03
 Coeff-Com:  0.619D-03-0.212D-02-0.596D-03 0.124D-01 0.111D+00 0.402D+00
 Coeff-Com:  0.477D+00
 Coeff-En:   0.000D+00 0.000D+00 0.000D+00 0.000D+00 0.000D+00 0.101D+00
 Coeff-En:   0.899D+00
 Coeff:      0.617D-03-0.211D-02-0.594D-03 0.123D-01 0.111D+00 0.401D+00
 Coeff:      0.478D+00
 Gap=     0.144 Goal=   None    Shift=    0.000
 RMSDP=2.24D-05 MaxDP=9.43D-04 DE=-1.82D-04 OVMax= 2.38D-03

 Cycle   8  Pass 0  IDiag  1:
 RMSU=  1.06D-05    CP:  1.01D+00  9.69D-01  6.08D-01  5.84D-01  6.38D-01
                    CP:  7.06D-01  5.28D-01
 E= -1260.32949955921     Delta-E=       -0.000030540969 Rises=F Damp=F
 DIIS: error= 6.36D-05 at cycle   8 NSaved=   8.
 NSaved= 8 IEnMin= 8 EnMin= -1260.32949955921     IErMin= 8 ErrMin= 6.36D-05
 ErrMax= 6.36D-05  0.00D+00 EMaxC= 1.00D-01 BMatC= 1.85D-06 BMatP= 3.05D-05
 IDIUse=1 WtCom= 1.00D+00 WtEn= 0.00D+00
 Coeff-Com:  0.745D-03-0.183D-02-0.293D-02 0.709D-03 0.368D-01 0.168D+00
 Coeff-Com:  0.265D+00 0.533D+00
 Coeff:      0.745D-03-0.183D-02-0.293D-02 0.709D-03 0.368D-01 0.168D+00
 Coeff:      0.265D+00 0.533D+00
 Gap=     0.144 Goal=   None    Shift=    0.000
 RMSDP=5.57D-06 MaxDP=2.57D-04 DE=-3.05D-05 OVMax= 4.42D-04

 Initial convergence to 1.0D-05 achieved.  Increase integral accuracy.
 Cycle   9  Pass 1  IDiag  1:
 E= -1260.32948976491     Delta-E=        0.000009794296 Rises=F Damp=F
 DIIS: error= 3.97D-05 at cycle   1 NSaved=   1.
 NSaved= 1 IEnMin= 1 EnMin= -1260.32948976491     IErMin= 1 ErrMin= 3.97D-05
 ErrMax= 3.97D-05  0.00D+00 EMaxC= 1.00D-01 BMatC= 4.33D-07 BMatP= 4.33D-07
 IDIUse=1 WtCom= 1.00D+00 WtEn= 0.00D+00
 Coeff-Com:  0.100D+01
 Coeff:      0.100D+01
 Gap=     0.144 Goal=   None    Shift=    0.000
 RMSDP=5.57D-06 MaxDP=2.57D-04 DE= 9.79D-06 OVMax= 2.19D-04

 Cycle  10  Pass 1  IDiag  1:
 RMSU=  2.60D-05    CP:  1.00D+00
 E= -1260.32948979501     Delta-E=       -0.000000030099 Rises=F Damp=F
 DIIS: error= 2.80D-05 at cycle   2 NSaved=   2.
 NSaved= 2 IEnMin= 2 EnMin= -1260.32948979501     IErMin= 2 ErrMin= 2.80D-05
 ErrMax= 2.80D-05  0.00D+00 EMaxC= 1.00D-01 BMatC= 3.24D-07 BMatP= 4.33D-07
 IDIUse=1 WtCom= 1.00D+00 WtEn= 0.00D+00
 Coeff-Com:  0.451D+00 0.549D+00
 Coeff:      0.451D+00 0.549D+00
 Gap=     0.144 Goal=   None    Shift=    0.000
 RMSDP=3.17D-06 MaxDP=1.12D-04 DE=-3.01D-08 OVMax= 2.55D-04

 Cycle  11  Pass 1  IDiag  1:
 RMSU=  3.17D-06    CP:  1.00D+00  9.93D-01
 E= -1260.32948999634     Delta-E=       -0.000000201330 Rises=F Damp=F
 DIIS: error= 2.06D-05 at cycle   3 NSaved=   3.
 NSaved= 3 IEnMin= 3 EnMin= -1260.32948999634     IErMin= 3 ErrMin= 2.06D-05
 ErrMax= 2.06D-05  0.00D+00 EMaxC= 1.00D-01 BMatC= 1.30D-07 BMatP= 3.24D-07
 IDIUse=1 WtCom= 1.00D+00 WtEn= 0.00D+00
 Coeff-Com:  0.361D-01 0.382D+00 0.581D+00
 Coeff:      0.361D-01 0.382D+00 0.581D+00
 Gap=     0.144 Goal=   None    Shift=    0.000
 RMSDP=1.43D-06 MaxDP=4.18D-05 DE=-2.01D-07 OVMax= 1.18D-04

 Cycle  12  Pass 1  IDiag  1:
 RMSU=  5.79D-07    CP:  1.00D+00  1.00D+00  5.98D-01
 E= -1260.32949012950     Delta-E=       -0.000000133160 Rises=F Damp=F
 DIIS: error= 4.04D-06 at cycle   4 NSaved=   4.
 NSaved= 4 IEnMin= 4 EnMin= -1260.32949012950     IErMin= 4 ErrMin= 4.04D-06
 ErrMax= 4.04D-06  0.00D+00 EMaxC= 1.00D-01 BMatC= 7.10D-09 BMatP= 1.30D-07
 IDIUse=1 WtCom= 1.00D+00 WtEn= 0.00D+00
 Coeff-Com: -0.175D-02 0.194D+00 0.338D+00 0.469D+00
 Coeff:     -0.175D-02 0.194D+00 0.338D+00 0.469D+00
 Gap=     0.144 Goal=   None    Shift=    0.000
 RMSDP=3.33D-07 MaxDP=1.23D-05 DE=-1.33D-07 OVMax= 2.42D-05

 Cycle  13  Pass 1  IDiag  1:
 RMSU=  1.35D-07    CP:  1.00D+00  1.01D+00  6.26D-01  4.98D-01
 E= -1260.32949013678     Delta-E=       -0.000000007277 Rises=F Damp=F
 DIIS: error= 1.27D-06 at cycle   5 NSaved=   5.
 NSaved= 5 IEnMin= 5 EnMin= -1260.32949013678     IErMin= 5 ErrMin= 1.27D-06
 ErrMax= 1.27D-06  0.00D+00 EMaxC= 1.00D-01 BMatC= 3.38D-10 BMatP= 7.10D-09
 IDIUse=1 WtCom= 1.00D+00 WtEn= 0.00D+00
 Coeff-Com: -0.220D-02 0.107D+00 0.189D+00 0.291D+00 0.416D+00
 Coeff:     -0.220D-02 0.107D+00 0.189D+00 0.291D+00 0.416D+00
 Gap=     0.144 Goal=   None    Shift=    0.000
 RMSDP=7.51D-08 MaxDP=3.07D-06 DE=-7.28D-09 OVMax= 5.93D-06

 Cycle  14  Pass 1  IDiag  1:
 RMSU=  4.53D-08    CP:  1.00D+00  1.01D+00  6.24D-01  5.05D-01  5.61D-01
 E= -1260.32949013710     Delta-E=       -0.000000000323 Rises=F Damp=F
 DIIS: error= 2.18D-07 at cycle   6 NSaved=   6.
 NSaved= 6 IEnMin= 6 EnMin= -1260.32949013710     IErMin= 6 ErrMin= 2.18D-07
 ErrMax= 2.18D-07  0.00D+00 EMaxC= 1.00D-01 BMatC= 1.83D-11 BMatP= 3.38D-10
 IDIUse=1 WtCom= 1.00D+00 WtEn= 0.00D+00
 Coeff-Com: -0.112D-02 0.436D-01 0.776D-01 0.125D+00 0.223D+00 0.532D+00
 Coeff:     -0.112D-02 0.436D-01 0.776D-01 0.125D+00 0.223D+00 0.532D+00
 Gap=     0.144 Goal=   None    Shift=    0.000
 RMSDP=1.85D-08 MaxDP=9.89D-07 DE=-3.23D-10 OVMax= 1.37D-06

 Cycle  15  Pass 1  IDiag  1:
 RMSU=  1.52D-08    CP:  1.00D+00  1.01D+00  6.24D-01  5.10D-01  6.11D-01
                    CP:  8.38D-01
 E= -1260.32949013713     Delta-E=       -0.000000000029 Rises=F Damp=F
 DIIS: error= 7.10D-08 at cycle   7 NSaved=   7.
 NSaved= 7 IEnMin= 7 EnMin= -1260.32949013713     IErMin= 7 ErrMin= 7.10D-08
 ErrMax= 7.10D-08  0.00D+00 EMaxC= 1.00D-01 BMatC= 2.52D-12 BMatP= 1.83D-11
 IDIUse=1 WtCom= 1.00D+00 WtEn= 0.00D+00
 Coeff-Com: -0.104D-03-0.362D-03-0.332D-03 0.279D-02 0.163D-01 0.270D+00
 Coeff-Com:  0.711D+00
 Coeff:     -0.104D-03-0.362D-03-0.332D-03 0.279D-02 0.163D-01 0.270D+00
 Coeff:      0.711D+00
 Gap=     0.144 Goal=   None    Shift=    0.000
 RMSDP=7.85D-09 MaxDP=2.08D-07 DE=-2.91D-11 OVMax= 7.31D-07

 SCF Done:  E(RAPFD) =  -1260.32949014     A.U. after   15 cycles
            NFock= 15  Conv=0.79D-08     -V/T= 2.0074
 KE= 1.251125192376D+03 PE=-5.941269933931D+03 EE= 1.936498578160D+03
 Leave Link  502 at Fri Oct  4 16:22:06 2024, MaxMem=  2097152000 cpu:             362.5 elap:              22.8
 (Enter /uufs/chpc.utah.edu/sys/installdir/gaussian16/C01/AVX/g16/l601.exe)
 Copying SCF densities to generalized density rwf, IOpCl= 0 IROHF=0.

 **********************************************************************

            Population analysis using the SCF Density.

 **********************************************************************

 Orbital symmetries:
       Occupied  (A) (A) (A) (A) (A) (A) (A) (A) (A) (A) (A) (A)
                 (A) (A) (A) (A) (A) (A) (A) (A) (A) (A) (A) (A)
                 (A) (A) (A) (A) (A) (A) (A) (A) (A) (A) (A) (A)
                 (A) (A) (A) (A) (A) (A) (A) (A) (A) (A) (A) (A)
                 (A) (A) (A) (A) (A) (A) (A) (A) (A) (A) (A) (A)
                 (A) (A) (A) (A) (A) (A) (A) (A) (A) (A) (A) (A)
                 (A)
       Virtual   (A) (A) (A) (A) (A) (A) (A) (A) (A) (A) (A) (A)
                 (A) (A) (A) (A) (A) (A) (A) (A) (A) (A) (A) (A)
                 (A) (A) (A) (A) (A) (A) (A) (A) (A) (A) (A) (A)
                 (A) (A) (A) (A) (A) (A) (A) (A) (A) (A) (A) (A)
                 (A) (A) (A) (A) (A) (A) (A) (A) (A) (A) (A) (A)
                 (A) (A) (A) (A) (A) (A) (A) (A) (A) (A) (A) (A)
                 (A) (A) (A) (A) (A) (A) (A) (A) (A) (A) (A) (A)
                 (A) (A) (A) (A) (A) (A) (A) (A) (A) (A) (A) (A)
                 (A) (A) (A) (A) (A) (A) (A) (A) (A) (A) (A) (A)
                 (A) (A) (A) (A) (A) (A) (A) (A) (A) (A) (A) (A)
                 (A) (A) (A) (A) (A) (A) (A) (A) (A) (A) (A) (A)
                 (A) (A) (A) (A) (A) (A) (A) (A) (A) (A) (A) (A)
                 (A) (A) (A) (A) (A) (A) (A) (A) (A) (A) (A) (A)
                 (A) (A) (A) (A) (A) (A) (A) (A) (A) (A) (A) (A)
                 (A) (A) (A) (A) (A) (A) (A) (A) (A) (A) (A) (A)
                 (A) (A) (A) (A) (A) (A) (A) (A) (A) (A) (A) (A)
                 (A) (A) (A) (A) (A) (A) (A) (A) (A) (A) (A) (A)
                 (A) (A) (A) (A) (A) (A) (A) (A) (A) (A) (A) (A)
                 (A) (A) (A) (A) (A) (A) (A) (A) (A) (A) (A) (A)
                 (A) (A) (A) (A) (A) (A) (A) (A) (A) (A) (A) (A)
                 (A) (A)
 The electronic state is 1-A.
 Alpha  occ. eigenvalues --  -89.23051 -24.79150 -19.20589 -19.20483 -14.40743
 Alpha  occ. eigenvalues --  -14.40481 -10.30552 -10.27600 -10.26888 -10.26439
 Alpha  occ. eigenvalues --  -10.26265 -10.26205 -10.25178 -10.25143 -10.24565
 Alpha  occ. eigenvalues --  -10.22673 -10.22597 -10.22168 -10.21990  -8.20907
 Alpha  occ. eigenvalues --   -6.15875  -6.15470  -6.15401  -1.28356  -1.12613
 Alpha  occ. eigenvalues --   -1.04247  -0.99086  -0.97434  -0.88566  -0.85028
 Alpha  occ. eigenvalues --   -0.83001  -0.77699  -0.77479  -0.74916  -0.71687
 Alpha  occ. eigenvalues --   -0.69141  -0.67487  -0.65592  -0.62177  -0.60110
 Alpha  occ. eigenvalues --   -0.59335  -0.55491  -0.53931  -0.51968  -0.51164
 Alpha  occ. eigenvalues --   -0.50913  -0.50065  -0.49542  -0.48648  -0.48594
 Alpha  occ. eigenvalues --   -0.46188  -0.45302  -0.44780  -0.44470  -0.43498
 Alpha  occ. eigenvalues --   -0.43255  -0.42930  -0.42077  -0.41765  -0.39683
 Alpha  occ. eigenvalues --   -0.39143  -0.38226  -0.37403  -0.36135  -0.35179
 Alpha  occ. eigenvalues --   -0.34399  -0.32996  -0.32186  -0.31100  -0.29948
 Alpha  occ. eigenvalues --   -0.29509  -0.25583  -0.21172
 Alpha virt. eigenvalues --   -0.06731  -0.04949  -0.00411   0.00734   0.01139
 Alpha virt. eigenvalues --    0.07390   0.08276   0.09955   0.10102   0.10609
 Alpha virt. eigenvalues --    0.11273   0.12273   0.12656   0.14202   0.14912
 Alpha virt. eigenvalues --    0.15199   0.16056   0.16588   0.17247   0.17478
 Alpha virt. eigenvalues --    0.18241   0.18873   0.19539   0.21759   0.23073
 Alpha virt. eigenvalues --    0.23394   0.25193   0.26852   0.27526   0.29472
 Alpha virt. eigenvalues --    0.30815   0.31154   0.32590   0.33513   0.36344
 Alpha virt. eigenvalues --    0.37108   0.38229   0.40604   0.40933   0.42907
 Alpha virt. eigenvalues --    0.45688   0.48579   0.49646   0.51418   0.51916
 Alpha virt. eigenvalues --    0.52164   0.53602   0.54238   0.54673   0.55482
 Alpha virt. eigenvalues --    0.56783   0.57113   0.57582   0.58645   0.59114
 Alpha virt. eigenvalues --    0.60097   0.60614   0.61244   0.61581   0.62031
 Alpha virt. eigenvalues --    0.62798   0.63836   0.64926   0.67032   0.69350
 Alpha virt. eigenvalues --    0.69447   0.70928   0.71915   0.74496   0.76333
 Alpha virt. eigenvalues --    0.77273   0.77430   0.79580   0.81060   0.81700
 Alpha virt. eigenvalues --    0.82014   0.82412   0.82731   0.83683   0.84040
 Alpha virt. eigenvalues --    0.84358   0.84958   0.85438   0.86231   0.87194
 Alpha virt. eigenvalues --    0.87811   0.88468   0.89093   0.89752   0.91212
 Alpha virt. eigenvalues --    0.93073   0.94196   0.94754   0.95211   0.96532
 Alpha virt. eigenvalues --    0.97075   0.98397   0.99164   0.99457   1.01659
 Alpha virt. eigenvalues --    1.02836   1.03139   1.04404   1.05829   1.06122
 Alpha virt. eigenvalues --    1.06822   1.07939   1.09495   1.12934   1.13686
 Alpha virt. eigenvalues --    1.16949   1.17188   1.18956   1.19247   1.20536
 Alpha virt. eigenvalues --    1.22547   1.24910   1.25630   1.27823   1.28629
 Alpha virt. eigenvalues --    1.30952   1.32189   1.33350   1.34316   1.35652
 Alpha virt. eigenvalues --    1.37193   1.39826   1.42469   1.44699   1.45266
 Alpha virt. eigenvalues --    1.45736   1.46255   1.47462   1.49168   1.49592
 Alpha virt. eigenvalues --    1.50132   1.51650   1.54972   1.58046   1.58627
 Alpha virt. eigenvalues --    1.59884   1.66390   1.68602   1.73082   1.74628
 Alpha virt. eigenvalues --    1.75873   1.77165   1.78223   1.78959   1.79019
 Alpha virt. eigenvalues --    1.79546   1.80180   1.81661   1.82966   1.83953
 Alpha virt. eigenvalues --    1.85323   1.85843   1.86528   1.86977   1.89258
 Alpha virt. eigenvalues --    1.91032   1.92159   1.92888   1.93801   1.95977
 Alpha virt. eigenvalues --    1.97076   1.97748   2.00692   2.03211   2.03602
 Alpha virt. eigenvalues --    2.05242   2.09046   2.09244   2.11377   2.11940
 Alpha virt. eigenvalues --    2.12781   2.14334   2.15127   2.16369   2.16961
 Alpha virt. eigenvalues --    2.17560   2.19222   2.19780   2.20444   2.22676
 Alpha virt. eigenvalues --    2.25646   2.26647   2.27584   2.28987   2.29873
 Alpha virt. eigenvalues --    2.30283   2.31343   2.32291   2.34436   2.38018
 Alpha virt. eigenvalues --    2.41284   2.47654   2.51032   2.54260   2.55439
 Alpha virt. eigenvalues --    2.57438   2.59375   2.60616   2.61345   2.64380
 Alpha virt. eigenvalues --    2.65093   2.65748   2.67930   2.68682   2.71831
 Alpha virt. eigenvalues --    2.78734   2.80343   2.81997   2.82832   2.84261
 Alpha virt. eigenvalues --    2.86493   2.90617   2.95280   2.96008   3.10340
 Alpha virt. eigenvalues --    3.24379   3.30156   3.43466   3.77997   3.89581
 Alpha virt. eigenvalues --    3.96200   4.05643   4.06704   4.08734   4.11422
 Alpha virt. eigenvalues --    4.15514   4.16655   4.17706   4.25773   4.28224
 Alpha virt. eigenvalues --    4.31097   4.33475   4.39547   4.44579   4.57818
 Alpha virt. eigenvalues --    4.61564   4.77351
          Condensed to atoms (all electrons):
               1          2          3          4          5          6
     1  C    5.039136   0.308171  -0.059488  -0.042209  -0.007852  -0.000003
     2  N    0.308171   6.979459   0.303277   0.326286  -0.075671   0.004840
     3  C   -0.059488   0.303277   5.044722  -0.039585   0.005194  -0.000095
     4  C   -0.042209   0.326286  -0.039585   4.448701   0.534583  -0.011211
     5  C   -0.007852  -0.075671   0.005194   0.534583   5.044210   0.539559
     6  C   -0.000003   0.004840  -0.000095  -0.011211   0.539559   4.878606
     7  C    0.000002   0.000429   0.000010  -0.035559  -0.049732   0.525805
     8  C   -0.000041   0.004104   0.000004  -0.009216  -0.034512  -0.017014
     9  C    0.000001  -0.000111  -0.000002   0.004863   0.000750   0.005882
    10  C   -0.000000   0.000000  -0.000000  -0.000094   0.000001   0.000323
    11  C    0.000000   0.000000   0.000000   0.000000  -0.000000  -0.000004
    12  C   -0.000000   0.000000  -0.000000  -0.000000   0.000000   0.000000
    13  S   -0.000000  -0.000000  -0.000000  -0.000000  -0.000000   0.000000
    14  F    0.000000  -0.000000  -0.000000   0.000000   0.000000  -0.000000
    15  O    0.000000  -0.000000  -0.000000   0.000000   0.000000  -0.000000
    16  O   -0.000000   0.000000   0.000000  -0.000000  -0.000000   0.000000
    17  N    0.000000  -0.000000   0.000000  -0.000002   0.000000   0.000000
    18  C    0.000000   0.000002  -0.000018   0.000172   0.000003  -0.000155
    19  C    0.004982  -0.063388  -0.009292   0.506992  -0.064527  -0.047521
    20  H    0.380590  -0.027834  -0.006962   0.003090   0.000382  -0.000003
    21  H    0.372271  -0.051979   0.001901  -0.002360   0.004119  -0.000025
    22  H    0.379749  -0.043600   0.004129  -0.004585   0.003140   0.000157
    23  H   -0.006940  -0.027332   0.379963   0.002963  -0.000092   0.000002
    24  H    0.003999  -0.045460   0.379382  -0.005133  -0.000193   0.000002
    25  H    0.002156  -0.050607   0.372825  -0.001590   0.000265  -0.000012
    26  H    0.007276  -0.010594  -0.000024  -0.037792   0.357710  -0.040516
    27  H   -0.000004  -0.000090   0.000002   0.002550  -0.034933   0.365472
    28  H   -0.000000   0.000005  -0.000000   0.000642   0.004518  -0.038789
    29  H   -0.000000   0.000000   0.000000   0.000001  -0.000010   0.000026
    30  H   -0.000000   0.000000  -0.000000  -0.000000   0.000000  -0.000000
    31  H   -0.000000  -0.000003  -0.000013  -0.000033   0.000001  -0.000008
    32  H   -0.000026  -0.011093   0.008289  -0.035533   0.005890   0.000178
               7          8          9         10         11         12
     1  C    0.000002  -0.000041   0.000001  -0.000000   0.000000  -0.000000
     2  N    0.000429   0.004104  -0.000111   0.000000   0.000000   0.000000
     3  C    0.000010   0.000004  -0.000002  -0.000000   0.000000  -0.000000
     4  C   -0.035559  -0.009216   0.004863  -0.000094   0.000000  -0.000000
     5  C   -0.049732  -0.034512   0.000750   0.000001  -0.000000   0.000000
     6  C    0.525805  -0.017014   0.005882   0.000323  -0.000004   0.000000
     7  C    5.033539   0.533798  -0.049211  -0.012130   0.000331  -0.000020
     8  C    0.533798   4.739174   0.335984  -0.051944   0.007197   0.000694
     9  C   -0.049211   0.335984   4.913921   0.519956  -0.014844  -0.035430
    10  C   -0.012130  -0.051944   0.519956   4.999596   0.494245  -0.040179
    11  C    0.000331   0.007197  -0.014844   0.494245   4.976632   0.458858
    12  C   -0.000020   0.000694  -0.035430  -0.040179   0.458858   5.304196
    13  S    0.000000  -0.000008   0.000160   0.001434  -0.022361   0.197168
    14  F    0.000000   0.000000  -0.000003  -0.000014   0.000805  -0.030393
    15  O   -0.000000  -0.000000   0.000006   0.000052   0.000246  -0.057424
    16  O    0.000000  -0.000000  -0.000001   0.000089   0.000000  -0.056005
    17  N   -0.000096   0.005029  -0.009020  -0.042409  -0.023762   0.350423
    18  C    0.005724  -0.027121   0.433648  -0.060952  -0.037002  -0.071320
    19  C   -0.067631   0.519412  -0.037735   0.005159  -0.000192   0.000019
    20  H    0.000000   0.000001  -0.000000   0.000000  -0.000000   0.000000
    21  H   -0.000015  -0.000005   0.000000  -0.000000  -0.000000   0.000000
    22  H   -0.000007   0.000003   0.000000   0.000000   0.000000  -0.000000
    23  H    0.000000  -0.000001  -0.000000  -0.000000   0.000000   0.000000
    24  H   -0.000004   0.000219  -0.000016   0.000000   0.000000  -0.000000
    25  H   -0.000014  -0.000106   0.000004  -0.000001  -0.000000   0.000000
    26  H    0.004701   0.000545   0.000005  -0.000000   0.000000   0.000000
    27  H   -0.034290   0.002617  -0.000176  -0.000000  -0.000000  -0.000000
    28  H    0.358352  -0.040938  -0.008479   0.003760   0.000049  -0.000001
    29  H    0.006055  -0.008642  -0.037203   0.364909  -0.042355   0.005508
    30  H   -0.000005  -0.000053   0.003412  -0.030092   0.361159  -0.036033
    31  H   -0.000046  -0.000980  -0.063202   0.004008   0.000289   0.006570
    32  H    0.005794  -0.041528  -0.009846  -0.000019  -0.000012  -0.000001
              13         14         15         16         17         18
     1  C   -0.000000   0.000000   0.000000  -0.000000   0.000000   0.000000
     2  N   -0.000000  -0.000000  -0.000000   0.000000  -0.000000   0.000002
     3  C   -0.000000  -0.000000  -0.000000   0.000000   0.000000  -0.000018
     4  C   -0.000000   0.000000   0.000000  -0.000000  -0.000002   0.000172
     5  C   -0.000000   0.000000   0.000000  -0.000000   0.000000   0.000003
     6  C    0.000000  -0.000000  -0.000000   0.000000   0.000000  -0.000155
     7  C    0.000000   0.000000  -0.000000   0.000000  -0.000096   0.005724
     8  C   -0.000008   0.000000  -0.000000  -0.000000   0.005029  -0.027121
     9  C    0.000160  -0.000003   0.000006  -0.000001  -0.009020   0.433648
    10  C    0.001434  -0.000014   0.000052   0.000089  -0.042409  -0.060952
    11  C   -0.022361   0.000805   0.000246   0.000000  -0.023762  -0.037002
    12  C    0.197168  -0.030393  -0.057424  -0.056005   0.350423  -0.071320
    13  S   13.466694   0.218513   0.455400   0.453043  -0.021668   0.000172
    14  F    0.218513   9.145870  -0.035906  -0.035446   0.004012   0.000178
    15  O    0.455400  -0.035906   8.164586  -0.041576  -0.000123  -0.000137
    16  O    0.453043  -0.035446  -0.041576   8.167532   0.000217  -0.000119
    17  N   -0.021668   0.004012  -0.000123   0.000217   6.802355   0.421793
    18  C    0.000172   0.000178  -0.000137  -0.000119   0.421793   4.964477
    19  C    0.000001  -0.000000  -0.000000   0.000000   0.000088  -0.013088
    20  H    0.000000   0.000000  -0.000000   0.000000   0.000000   0.000000
    21  H   -0.000000   0.000000   0.000000  -0.000000  -0.000000  -0.000000
    22  H    0.000000  -0.000000  -0.000000   0.000000   0.000000   0.000000
    23  H    0.000000  -0.000000  -0.000000   0.000000   0.000000   0.000000
    24  H   -0.000000  -0.000000   0.000000  -0.000000   0.000000  -0.000010
    25  H    0.000000   0.000000   0.000000   0.000000  -0.000000  -0.000001
    26  H   -0.000000   0.000000   0.000000   0.000000   0.000000  -0.000000
    27  H    0.000000  -0.000000   0.000000   0.000000  -0.000000   0.000001
    28  H    0.000000   0.000000  -0.000000   0.000000  -0.000002   0.000003
    29  H   -0.000034   0.000000   0.000001   0.000001  -0.000074   0.005240
    30  H    0.001980   0.000009   0.000259   0.000527   0.003601   0.000188
    31  H   -0.000185   0.000003   0.000000   0.000000  -0.050375   0.380913
    32  H   -0.000000   0.000000   0.000000  -0.000000  -0.000070   0.005992
              19         20         21         22         23         24
     1  C    0.004982   0.380590   0.372271   0.379749  -0.006940   0.003999
     2  N   -0.063388  -0.027834  -0.051979  -0.043600  -0.027332  -0.045460
     3  C   -0.009292  -0.006962   0.001901   0.004129   0.379963   0.379382
     4  C    0.506992   0.003090  -0.002360  -0.004585   0.002963  -0.005133
     5  C   -0.064527   0.000382   0.004119   0.003140  -0.000092  -0.000193
     6  C   -0.047521  -0.000003  -0.000025   0.000157   0.000002   0.000002
     7  C   -0.067631   0.000000  -0.000015  -0.000007   0.000000  -0.000004
     8  C    0.519412   0.000001  -0.000005   0.000003  -0.000001   0.000219
     9  C   -0.037735  -0.000000   0.000000   0.000000  -0.000000  -0.000016
    10  C    0.005159   0.000000  -0.000000   0.000000  -0.000000   0.000000
    11  C   -0.000192  -0.000000  -0.000000   0.000000   0.000000   0.000000
    12  C    0.000019   0.000000   0.000000  -0.000000   0.000000  -0.000000
    13  S    0.000001   0.000000  -0.000000   0.000000   0.000000  -0.000000
    14  F   -0.000000   0.000000   0.000000  -0.000000  -0.000000  -0.000000
    15  O   -0.000000  -0.000000   0.000000  -0.000000  -0.000000   0.000000
    16  O    0.000000   0.000000  -0.000000   0.000000   0.000000  -0.000000
    17  N    0.000088   0.000000  -0.000000   0.000000   0.000000   0.000000
    18  C   -0.013088   0.000000  -0.000000   0.000000   0.000000  -0.000010
    19  C    5.179229  -0.000087   0.000020  -0.000077   0.000387   0.002999
    20  H   -0.000087   0.513739  -0.030484  -0.026319   0.004558   0.000373
    21  H    0.000020  -0.030484   0.568245  -0.044799   0.000250  -0.000422
    22  H   -0.000077  -0.026319  -0.044799   0.541479   0.000233   0.000140
    23  H    0.000387   0.004558   0.000250   0.000233   0.513157  -0.028233
    24  H    0.002999   0.000373  -0.000422   0.000140  -0.028233   0.548835
    25  H    0.003940   0.000041   0.001297  -0.000379  -0.027824  -0.045127
    26  H    0.005586   0.000059   0.000485   0.000012  -0.000003  -0.000003
    27  H    0.000922  -0.000000   0.000001  -0.000002  -0.000000  -0.000000
    28  H    0.005218  -0.000000   0.000000  -0.000000  -0.000000   0.000000
    29  H   -0.000073   0.000000  -0.000000   0.000000  -0.000000   0.000000
    30  H    0.000001   0.000000   0.000000  -0.000000   0.000000   0.000000
    31  H    0.003808   0.000000  -0.000000   0.000000  -0.000000   0.000111
    32  H    0.347100  -0.000002   0.000005  -0.000007   0.000025  -0.000095
              25         26         27         28         29         30
     1  C    0.002156   0.007276  -0.000004  -0.000000  -0.000000  -0.000000
     2  N   -0.050607  -0.010594  -0.000090   0.000005   0.000000   0.000000
     3  C    0.372825  -0.000024   0.000002  -0.000000   0.000000  -0.000000
     4  C   -0.001590  -0.037792   0.002550   0.000642   0.000001  -0.000000
     5  C    0.000265   0.357710  -0.034933   0.004518  -0.000010   0.000000
     6  C   -0.000012  -0.040516   0.365472  -0.038789   0.000026  -0.000000
     7  C   -0.000014   0.004701  -0.034290   0.358352   0.006055  -0.000005
     8  C   -0.000106   0.000545   0.002617  -0.040938  -0.008642  -0.000053
     9  C    0.000004   0.000005  -0.000176  -0.008479  -0.037203   0.003412
    10  C   -0.000001  -0.000000  -0.000000   0.003760   0.364909  -0.030092
    11  C   -0.000000   0.000000  -0.000000   0.000049  -0.042355   0.361159
    12  C    0.000000   0.000000  -0.000000  -0.000001   0.005508  -0.036033
    13  S    0.000000  -0.000000   0.000000   0.000000  -0.000034   0.001980
    14  F    0.000000   0.000000  -0.000000   0.000000   0.000000   0.000009
    15  O    0.000000   0.000000   0.000000  -0.000000   0.000001   0.000259
    16  O    0.000000   0.000000   0.000000   0.000000   0.000001   0.000527
    17  N   -0.000000   0.000000  -0.000000  -0.000002  -0.000074   0.003601
    18  C   -0.000001  -0.000000   0.000001   0.000003   0.005240   0.000188
    19  C    0.003940   0.005586   0.000922   0.005218  -0.000073   0.000001
    20  H    0.000041   0.000059  -0.000000  -0.000000   0.000000   0.000000
    21  H    0.001297   0.000485   0.000001   0.000000  -0.000000   0.000000
    22  H   -0.000379   0.000012  -0.000002  -0.000000   0.000000  -0.000000
    23  H   -0.027824  -0.000003  -0.000000  -0.000000  -0.000000   0.000000
    24  H   -0.045127  -0.000003  -0.000000   0.000000   0.000000   0.000000
    25  H    0.558198   0.000002   0.000000   0.000000  -0.000000   0.000000
    26  H    0.000002   0.550825  -0.004923  -0.000181  -0.000000  -0.000000
    27  H    0.000000  -0.004923   0.532539  -0.004333   0.000004   0.000000
    28  H    0.000000  -0.000181  -0.004333   0.555271   0.002479   0.000004
    29  H   -0.000000  -0.000000   0.000004   0.002479   0.507201  -0.004749
    30  H    0.000000  -0.000000   0.000000   0.000004  -0.004749   0.476273
    31  H   -0.000023  -0.000000   0.000000   0.000005  -0.000129   0.000021
    32  H    0.000825  -0.000166   0.000015  -0.000159  -0.000001   0.000000
              31         32
     1  C   -0.000000  -0.000026
     2  N   -0.000003  -0.011093
     3  C   -0.000013   0.008289
     4  C   -0.000033  -0.035533
     5  C    0.000001   0.005890
     6  C   -0.000008   0.000178
     7  C   -0.000046   0.005794
     8  C   -0.000980  -0.041528
     9  C   -0.063202  -0.009846
    10  C    0.004008  -0.000019
    11  C    0.000289  -0.000012
    12  C    0.006570  -0.000001
    13  S   -0.000185  -0.000000
    14  F    0.000003   0.000000
    15  O    0.000000   0.000000
    16  O    0.000000  -0.000000
    17  N   -0.050375  -0.000070
    18  C    0.380913   0.005992
    19  C    0.003808   0.347100
    20  H    0.000000  -0.000002
    21  H   -0.000000   0.000005
    22  H    0.000000  -0.000007
    23  H   -0.000000   0.000025
    24  H    0.000111  -0.000095
    25  H   -0.000023   0.000825
    26  H   -0.000000  -0.000166
    27  H    0.000000   0.000015
    28  H    0.000005  -0.000159
    29  H   -0.000129  -0.000001
    30  H    0.000021   0.000000
    31  H    0.518507   0.002747
    32  H    0.002747   0.555233
 Mulliken charges:
               1
     1  C   -0.381770
     2  N   -0.518812
     3  C   -0.384220
     4  C    0.394061
     5  C   -0.232807
     6  C   -0.165496
     7  C   -0.225781
     8  C    0.083330
     9  C    0.046685
    10  C   -0.155697
    11  C   -0.159280
    12  C    0.003369
    13  S    1.249692
    14  F   -0.267628
    15  O   -0.485384
    16  O   -0.488263
    17  N   -0.439919
    18  C   -0.008584
    19  C   -0.282253
    20  H    0.188859
    21  H    0.181493
    22  H    0.190734
    23  H    0.188886
    24  H    0.188636
    25  H    0.186132
    26  H    0.166995
    27  H    0.174627
    28  H    0.162576
    29  H    0.201845
    30  H    0.223498
    31  H    0.198012
    32  H    0.166463
 Sum of Mulliken charges =  -0.00000
 Mulliken charges with hydrogens summed into heavy atoms:
               1
     1  C    0.179316
     2  N   -0.518812
     3  C    0.179433
     4  C    0.394061
     5  C   -0.065812
     6  C    0.009131
     7  C   -0.063205
     8  C    0.083330
     9  C    0.046685
    10  C    0.046148
    11  C    0.064218
    12  C    0.003369
    13  S    1.249692
    14  F   -0.267628
    15  O   -0.485384
    16  O   -0.488263
    17  N   -0.439919
    18  C    0.189428
    19  C   -0.115790
 Electronic spatial extent (au):  <R**2>=           8558.9584
 Charge=             -0.0000 electrons
 Dipole moment (field-independent basis, Debye):
    X=              8.6176    Y=              0.5897    Z=              0.5973  Tot=              8.6584
 Quadrupole moment (field-independent basis, Debye-Ang):
   XX=           -123.5936   YY=           -104.2307   ZZ=           -121.9664
   XY=             -9.4743   XZ=              2.9812   YZ=              2.9665
 Traceless Quadrupole moment (field-independent basis, Debye-Ang):
   XX=             -6.9967   YY=             12.3662   ZZ=             -5.3695
   XY=             -9.4743   XZ=              2.9812   YZ=              2.9665
 Octapole moment (field-independent basis, Debye-Ang**2):
  XXX=            244.6232  YYY=             -9.8472  ZZZ=             -4.3451  XYY=             12.6905
  XXY=            -38.4337  XXZ=              7.5500  XZZ=            -14.9428  YZZ=             -7.1069
  YYZ=              8.4450  XYZ=            -15.2311
 Hexadecapole moment (field-independent basis, Debye-Ang**3):
 XXXX=          -9146.0757 YYYY=          -1209.9965 ZZZZ=           -322.9391 XXXY=            -74.3568
 XXXZ=            105.2256 YYYX=             -2.3654 YYYZ=             12.1954 ZZZX=             36.0836
 ZZZY=             12.7716 XXYY=          -1610.0764 XXZZ=          -1710.8066 YYZZ=           -279.6172
 XXYZ=             23.7901 YYXZ=             -0.7647 ZZXY=            -10.8515
 N-N= 1.493316673258D+03 E-N=-5.941269926554D+03  KE= 1.251125192376D+03
 No NMR shielding tensors so no spin-rotation constants.
 Leave Link  601 at Fri Oct  4 16:22:06 2024, MaxMem=  2097152000 cpu:               3.5 elap:               0.3
 (Enter /uufs/chpc.utah.edu/sys/installdir/gaussian16/C01/AVX/g16/l701.exe)
 ... and contract with generalized density number  0.
 Compute integral first derivatives.
 R6APFD:  NTU= -4 IXU= 1 FactS= 1.050
 R6Disp: Adding Petersson-Frisch dispersion energy 1st derivatives to the gradient.
 Leave Link  701 at Fri Oct  4 16:22:07 2024, MaxMem=  2097152000 cpu:               3.3 elap:               0.2
 (Enter /uufs/chpc.utah.edu/sys/installdir/gaussian16/C01/AVX/g16/l702.exe)
 L702 exits ... SP integral derivatives will be done elsewhere.
 Leave Link  702 at Fri Oct  4 16:22:07 2024, MaxMem=  2097152000 cpu:               0.8 elap:               0.1
 (Enter /uufs/chpc.utah.edu/sys/installdir/gaussian16/C01/AVX/g16/l703.exe)
 Integral derivatives from FoFJK, PRISM(SPDF).
 Compute integral first derivatives, UseDBF=F ICtDFT=           0.
 Calling FoFJK, ICntrl=      2127 FMM=F ISym2X=0 I1Cent= 0 IOpClX= 0 NMat=1 NMatS=1 NMatT=0.
 FoFJK:  IHMeth= 1 ICntrl=    2127 DoSepK=F KAlg= 0 I1Cent=           0 FoldK=F
 IRaf=         0 NMat=       1 IRICut=       1 DoRegI=T DoRafI=F ISym2E= 0 IDoP0=0 IntGTp=1.
 FoFCou: FMM=F IPFlag=           0 FMFlag=      100000 FMFlg1=         800
         NFxFlg=           0 DoJE=F BraDBF=F KetDBF=F FulRan=T
         wScrn=  0.000000 ICntrl=      2127 IOpCl=  0 I1Cent=           0 NGrid=           0
         NMat0=    1 NMatS0=      1 NMatT0=    0 NMatD0=    1 NMtDS0=    0 NMtDT0=    0
 Symmetry not used in FoFCou.
 Leave Link  703 at Fri Oct  4 16:22:12 2024, MaxMem=  2097152000 cpu:              89.8 elap:               5.7
 (Enter /uufs/chpc.utah.edu/sys/installdir/gaussian16/C01/AVX/g16/l716.exe)
 Dipole        = 3.39043234D+00 2.32006357D-01 2.34981003D-01
 ***** Axes restored to original set *****
 -------------------------------------------------------------------
 Center     Atomic                   Forces (Hartrees/Bohr)
 Number     Number              X              Y              Z
 -------------------------------------------------------------------
      1        6           0.006973236    0.004227355    0.000774811
      2        7          -0.003525418   -0.006890853   -0.001071852
      3        6           0.001004831    0.007308636    0.002786408
      4        6           0.001802500   -0.007685967    0.001217278
      5        6          -0.010153512    0.013257999    0.000837678
      6        6           0.003621027   -0.013702751   -0.000110751
      7        6           0.002236244    0.009684177   -0.001944153
      8        6          -0.015529941   -0.008748739    0.001263439
      9        6           0.000660585    0.002488114   -0.004263434
     10        6           0.000885047   -0.000485449   -0.000301406
     11        6          -0.002960370    0.003377682   -0.001328831
     12        6          -0.014957368   -0.039877905    0.025630656
     13       16           0.017772105    0.024571973   -0.016513540
     14        9          -0.011399486   -0.003365543    0.006449987
     15        8           0.000152534    0.000290042    0.005490651
     16        8          -0.002667953   -0.005304962   -0.003249661
     17        7          -0.016070028    0.024948327   -0.011586911
     18        6           0.021815323   -0.008760212   -0.001140069
     19        6           0.013220207   -0.003571339   -0.001643173
     20        1           0.006952030    0.000735481    0.000091244
     21        1          -0.003413615    0.002854465   -0.000906633
     22        1          -0.000573535    0.002845762   -0.000736543
     23        1          -0.002525413    0.006178863    0.002086072
[...]
                                                    195(v),199(v),197(v),308(r)
                                                    233(g)
    73. LP (   3) O  16                  1.75108    -0.31353  309(v),198(v),195(v),310(v)
                                                    307(v),197(v),196(v),199(v)
                                                    232(g)
    74. LP (   1) N  17                  1.90749    -0.37287  305(v),301(v),185(v),307(v)
                                                    314(v),245(v),186(v)
    75. RY*(   1) C   1                  0.00288     0.92554   
    76. RY*(   2) C   1                  0.00186     1.57273   
    77. RY*(   3) C   1                  0.00093     0.74596   
    78. RY*(   4) C   1                  0.00029     1.14265   
    79. RY*(   5) C   1                  0.00010     1.66217   
    80. RY*(   6) C   1                  0.00002     1.99532   
    81. RY*(   7) C   1                  0.00001     4.00586   
    82. RY*(   8) C   1                  0.00001     1.92504   
    83. RY*(   9) C   1                  0.00001     1.57824   
    84. RY*(  10) C   1                  0.00001     2.11362   
    85. RY*(   1) N   2                  0.00517     0.90170   
    86. RY*(   2) N   2                  0.00174     1.71798   
    87. RY*(   3) N   2                  0.00086     1.74764   
    88. RY*(   4) N   2                  0.00065     1.59905   
    89. RY*(   5) N   2                  0.00041     1.93187   
    90. RY*(   6) N   2                  0.00039     1.93873   
    91. RY*(   7) N   2                  0.00021     1.96165   
    92. RY*(   8) N   2                  0.00012     2.17898   
    93. RY*(   9) N   2                  0.00001     3.87592   
    94. RY*(  10) N   2                  0.00001     2.33938   
    95. RY*(   1) C   3                  0.00289     0.93477   
    96. RY*(   2) C   3                  0.00185     1.57739   
    97. RY*(   3) C   3                  0.00094     0.74884   
    98. RY*(   4) C   3                  0.00030     1.13240   
    99. RY*(   5) C   3                  0.00010     1.67348   
   100. RY*(   6) C   3                  0.00001     2.09785   
   101. RY*(   7) C   3                  0.00002     1.90835   
   102. RY*(   8) C   3                  0.00001     4.05943   
   103. RY*(   9) C   3                  0.00001     1.42417   
   104. RY*(  10) C   3                  0.00001     2.12743   
   105. RY*(   1) C   4                  0.00726     1.17699   
   106. RY*(   2) C   4                  0.00414     1.29971   
   107. RY*(   3) C   4                  0.00271     1.62056   
   108. RY*(   4) C   4                  0.00077     1.81175   
   109. RY*(   5) C   4                  0.00063     1.01073   
   110. RY*(   6) C   4                  0.00040     1.11829   
   111. RY*(   7) C   4                  0.00014     2.41634   
   112. RY*(   8) C   4                  0.00011     2.30692   
   113. RY*(   9) C   4                  0.00007     3.91351   
   114. RY*(  10) C   4                  0.00002     2.43591   
   115. RY*(   1) C   5                  0.00399     1.30240   
   116. RY*(   2) C   5                  0.00250     0.88263   
   117. RY*(   3) C   5                  0.00097     0.68147   
   118. RY*(   4) C   5                  0.00054     1.92855   
   119. RY*(   5) C   5                  0.00031     1.11409   
   120. RY*(   6) C   5                  0.00009     2.48888   
   121. RY*(   7) C   5                  0.00002     1.78854   
   122. RY*(   8) C   5                  0.00003     3.33434   
   123. RY*(   9) C   5                  0.00003     2.29289   
   124. RY*(  10) C   5                  0.00001     3.01868   
   125. RY*(   1) C   6                  0.00516     1.28636   
   126. RY*(   2) C   6                  0.00316     0.72185   
   127. RY*(   3) C   6                  0.00090     1.94647   
   128. RY*(   4) C   6                  0.00039     0.84200   
   129. RY*(   5) C   6                  0.00034     1.09718   
   130. RY*(   6) C   6                  0.00011     2.37224   
   131. RY*(   7) C   6                  0.00004     3.30820   
   132. RY*(   8) C   6                  0.00000     1.72170   
   133. RY*(   9) C   6                  0.00001     2.22245   
   134. RY*(  10) C   6                  0.00001     3.02528   
   135. RY*(   1) C   7                  0.00444     1.29559   
   136. RY*(   2) C   7                  0.00251     0.78042   
   137. RY*(   3) C   7                  0.00113     0.74342   
   138. RY*(   4) C   7                  0.00058     1.88971   
   139. RY*(   5) C   7                  0.00027     1.18998   
   140. RY*(   6) C   7                  0.00009     2.37199   
   141. RY*(   7) C   7                  0.00004     3.34238   
   142. RY*(   8) C   7                  0.00005     2.20424   
   143. RY*(   9) C   7                  0.00001     1.94058   
   144. RY*(  10) C   7                  0.00001     2.99637   
   145. RY*(   1) C   8                  0.00535     1.23021   
   146. RY*(   2) C   8                  0.00525     1.13522   
   147. RY*(   3) C   8                  0.00159     0.94040   
   148. RY*(   4) C   8                  0.00105     1.91123   
   149. RY*(   5) C   8                  0.00050     1.18153   
   150. RY*(   6) C   8                  0.00032     2.00162   
   151. RY*(   7) C   8                  0.00011     2.24031   
   152. RY*(   8) C   8                  0.00009     2.87921   
   153. RY*(   9) C   8                  0.00006     3.39615   
   154. RY*(  10) C   8                  0.00002     2.55946   
   155. RY*(   1) C   9                  0.00503     1.10529   
   156. RY*(   2) C   9                  0.00438     1.23151   
   157. RY*(   3) C   9                  0.00125     1.00343   
   158. RY*(   4) C   9                  0.00067     1.00688   
   159. RY*(   5) C   9                  0.00053     1.95477   
   160. RY*(   6) C   9                  0.00043     1.91906   
   161. RY*(   7) C   9                  0.00012     2.45254   
   162. RY*(   8) C   9                  0.00010     2.20215   
   163. RY*(   9) C   9                  0.00007     3.86196   
   164. RY*(  10) C   9                  0.00002     2.56846   
   165. RY*(   1) C  10                  0.00525     1.26898   
   166. RY*(   2) C  10                  0.00265     0.76154   
   167. RY*(   3) C  10                  0.00058     1.87682   
   168. RY*(   4) C  10                  0.00048     0.99254   
   169. RY*(   5) C  10                  0.00039     0.79018   
   170. RY*(   6) C  10                  0.00009     2.36558   
   171. RY*(   7) C  10                  0.00005     3.46596   
   172. RY*(   8) C  10                  0.00004     2.16543   
   173. RY*(   9) C  10                  0.00002     2.70705   
   174. RY*(  10) C  10                  0.00002     2.04108   
   175. RY*(   1) C  11                  0.00504     1.21882   
   176. RY*(   2) C  11                  0.00338     0.73076   
   177. RY*(   3) C  11                  0.00067     1.42928   
   178. RY*(   4) C  11                  0.00061     0.98099   
   179. RY*(   5) C  11                  0.00056     1.13353   
   180. RY*(   6) C  11                  0.00011     2.47139   
   181. RY*(   7) C  11                  0.00009     2.22002   
   182. RY*(   8) C  11                  0.00004     3.78865   
   183. RY*(   9) C  11                  0.00002     2.12663   
   184. RY*(  10) C  11                  0.00001     2.24953   
   185. RY*(   1) C  12                  0.01391     0.83807   
   186. RY*(   2) C  12                  0.00679     1.18567   
   187. RY*(   3) C  12                  0.00309     0.79000   
   188. RY*(   4) C  12                  0.00161     1.10104   
   189. RY*(   5) C  12                  0.00104     1.92541   
   190. RY*(   6) C  12                  0.00058     2.32548   
   191. RY*(   7) C  12                  0.00034     2.45342   
   192. RY*(   8) C  12                  0.00030     1.94280   
   193. RY*(   9) C  12                  0.00009     3.90697   
   194. RY*(  10) C  12                  0.00002     2.34771   
   195. RY*(   1) S  13                  0.07540     0.84223   
   196. RY*(   2) S  13                  0.06258     0.75855   
   197. RY*(   3) S  13                  0.04737     0.86513   
   198. RY*(   4) S  13                  0.03521     0.87336   
   199. RY*(   5) S  13                  0.01417     0.73646   
   200. RY*(   6) S  13                  0.00820     0.60912   
   201. RY*(   7) S  13                  0.00372     0.57495   
   202. RY*(   8) S  13                  0.00193     0.74507   
   203. RY*(   9) S  13                  0.00082     0.65648   
   204. RY*(  10) S  13                  0.00005     3.50127   
   205. RY*(   1) F  14                  0.00174     2.02642   
   206. RY*(   2) F  14                  0.00020     1.57552   
   207. RY*(   3) F  14                  0.00012     1.82761   
   208. RY*(   4) F  14                  0.00007     1.97349   
   209. RY*(   5) F  14                  0.00006     1.88272   
   210. RY*(   6) F  14                  0.00004     1.82904   
   211. RY*(   7) F  14                  0.00001     4.12818   
   212. RY*(   8) F  14                  0.00000     1.72572   
   213. RY*(   9) F  14                  0.00000     1.80567   
   214. RY*(  10) F  14                  0.00001     1.88903   
   215. RY*(   1) O  15                  0.00116     1.40983   
   216. RY*(   2) O  15                  0.00067     1.22856   
   217. RY*(   3) O  15                  0.00039     1.46449   
   218. RY*(   4) O  15                  0.00019     1.64204   
   219. RY*(   5) O  15                  0.00008     1.98318   
   220. RY*(   6) O  15                  0.00006     1.79835   
   221. RY*(   7) O  15                  0.00002     1.87385   
   222. RY*(   8) O  15                  0.00003     1.95970   
   223. RY*(   9) O  15                  0.00003     1.78826   
   224. RY*(  10) O  15                  0.00000     3.66388   
   225. RY*(   1) O  16                  0.00101     1.57638   
   226. RY*(   2) O  16                  0.00059     1.52103   
   227. RY*(   3) O  16                  0.00042     1.24205   
   228. RY*(   4) O  16                  0.00020     1.44276   
   229. RY*(   5) O  16                  0.00010     2.26046   
   230. RY*(   6) O  16                  0.00006     2.10108   
   231. RY*(   7) O  16                  0.00003     1.96894   
   232. RY*(   8) O  16                  0.00001     2.01684   
   233. RY*(   9) O  16                  0.00001     2.43244   
   234. RY*(  10) O  16                  0.00002     2.02688   
   235. RY*(   1) N  17                  0.00632     0.87130   
   236. RY*(   2) N  17                  0.00273     1.18337   
   237. RY*(   3) N  17                  0.00083     1.12283   
   238. RY*(   4) N  17                  0.00049     1.78717   
   239. RY*(   5) N  17                  0.00034     1.45711   
   240. RY*(   6) N  17                  0.00020     2.28254   
   241. RY*(   7) N  17                  0.00006     2.13057   
   242. RY*(   8) N  17                  0.00003     2.26379   
   243. RY*(   9) N  17                  0.00003     1.89659   
   244. RY*(  10) N  17                  0.00001     3.68688   
   245. RY*(   1) C  18                  0.00663     1.06827   
   246. RY*(   2) C  18                  0.00530     0.87182   
   247. RY*(   3) C  18                  0.00149     1.45469   
   248. RY*(   4) C  18                  0.00080     1.46416   
   249. RY*(   5) C  18                  0.00057     1.35496   
   250. RY*(   6) C  18                  0.00033     1.89848   
   251. RY*(   7) C  18                  0.00009     2.65895   
   252. RY*(   8) C  18                  0.00005     3.54394   
   253. RY*(   9) C  18                  0.00001     2.23762   
   254. RY*(  10) C  18                  0.00002     1.99867   
   255. RY*(   1) C  19                  0.00390     1.29680   
   256. RY*(   2) C  19                  0.00244     0.96440   
   257. RY*(   3) C  19                  0.00117     0.67439   
   258. RY*(   4) C  19                  0.00059     1.92531   
   259. RY*(   5) C  19                  0.00040     1.18097   
   260. RY*(   6) C  19                  0.00008     2.37461   
   261. RY*(   7) C  19                  0.00005     2.87942   
   262. RY*(   8) C  19                  0.00003     1.84290   
   263. RY*(   9) C  19                  0.00002     2.92138   
   264. RY*(  10) C  19                  0.00001     3.04314   
   265. RY*(   1) H  20                  0.00053     0.65047   
   266. RY*(   1) H  21                  0.00216     0.65695   
   267. RY*(   1) H  22                  0.00159     0.67131   
   268. RY*(   1) H  23                  0.00053     0.65050   
   269. RY*(   1) H  24                  0.00164     0.67518   
   270. RY*(   1) H  25                  0.00217     0.65951   
   271. RY*(   1) H  26                  0.00090     0.64456   
   272. RY*(   1) H  27                  0.00078     0.57244   
   273. RY*(   1) H  28                  0.00087     0.59873   
   274. RY*(   1) H  29                  0.00093     0.58196   
   275. RY*(   1) H  30                  0.00107     0.58384   
   276. RY*(   1) H  31                  0.00123     0.60030   
   277. RY*(   1) H  32                  0.00107     0.69411   
   278. BD*(   1) C   1 - N   2          0.01424     0.36694   
   279. BD*(   1) C   1 - H  20          0.00495     0.45165   
   280. BD*(   1) C   1 - H  21          0.02178     0.43618   
   281. BD*(   1) C   1 - H  22          0.01720     0.44028   
   282. BD*(   1) N   2 - C   3          0.01424     0.36768   
   283. BD*(   1) N   2 - C   4          0.03173     0.49572   
   284. BD*(   1) C   3 - H  23          0.00505     0.45219   
   285. BD*(   1) C   3 - H  24          0.01677     0.44031   
   286. BD*(   1) C   3 - H  25          0.02244     0.43614   
   287. BD*(   1) C   4 - C   5          0.02274     0.55814   
   288. BD*(   1) C   4 - C  19          0.02145     0.56422   
   289. BD*(   2) C   4 - C  19          0.42466     0.02640  296(v),291(v),257(g),110(g)
                                                    108(g)
   290. BD*(   1) C   5 - C   6          0.01399     0.60059   
   291. BD*(   2) C   5 - C   6          0.33954     0.03485  296(v),289(v),117(g),128(g)
   292. BD*(   1) C   5 - H  26          0.01216     0.48253   
   293. BD*(   1) C   6 - C   7          0.01517     0.59567   
   294. BD*(   1) C   6 - H  27          0.01197     0.48553   
   295. BD*(   1) C   7 - C   8          0.02412     0.58037   
   296. BD*(   2) C   7 - C   8          0.40694     0.03410  291(v),289(v),63(v),137(g)
                                                    300(v),301(v),257(v),148(g)
   297. BD*(   1) C   7 - H  28          0.01266     0.48082   
   298. BD*(   1) C   8 - C   9          0.02984     0.48254   
   299. BD*(   1) C   8 - C  19          0.02168     0.58836   
   300. BD*(   1) C   9 - C  10          0.02347     0.55522   
   301. BD*(   1) C   9 - C  18          0.03414     0.53947   
   302. BD*(   1) C  10 - C  11          0.01584     0.56323   
   303. BD*(   2) C  10 - C  11          0.29096     0.00686  63(v),64(v),313(r),179(g)
                                                    169(g)
   304. BD*(   1) C  10 - H  29          0.01339     0.46386   
   305. BD*(   1) C  11 - C  12          0.03532     0.54350   
   306. BD*(   1) C  11 - H  30          0.01438     0.47431   
   307. BD*(   1) C  12 - S  13          0.21660     0.14941  196(g),306(v),310(g),302(v)
                                                    312(v),188(g),311(g),202(g)
   308. BD*(   1) C  12 - N  17          0.02622     0.52766   
   309. BD*(   1) S  13 - F  14          0.38776     0.02628  195(g),64(v),196(g),310(g)
                                                    311(g),205(g),203(g),199(g)
   310. BD*(   1) S  13 - O  15          0.14762     0.30515  311(g),197(g),195(g),198(g)
                                                    196(g),218(g),199(g),307(g)
                                                    201(g),217(g),309(g)
   311. BD*(   1) S  13 - O  16          0.15099     0.29925  310(g),197(g),195(g),196(g)
                                                    199(g),228(g),308(v),198(g)
                                                    200(g),305(v),185(v),307(g)
                                                    309(g)
   312. BD*(   1) N  17 - C  18          0.01415     0.53948   
   313. BD*(   2) N  17 - C  18          0.34311    -0.00882  63(v),64(v),303(r),247(g)
                                                    239(g)
   314. BD*(   1) C  18 - H  31          0.02130     0.46931   
   315. BD*(   1) C  19 - H  32          0.01266     0.47436   
       -------------------------------
              Total Lewis  141.33139  ( 96.8023%)
        Valence non-Lewis    4.22073  (  2.8909%)
        Rydberg non-Lewis    0.44788  (  0.3068%)
       -------------------------------
            Total unit  1  146.00000  (100.0000%)
           Charge unit  1    0.00000


 NATURAL LOCALIZED MOLECULAR ORBITAL (NLMO) ANALYSIS:

 Highest occupied NBOs are not at the beginning of the NBO list;
 The NLMO program is not currently set up to handle this.
 Leave Link  607 at Fri Oct  4 16:57:08 2024, MaxMem=  2097152000 cpu:              32.3 elap:               2.0
 (Enter /uufs/chpc.utah.edu/sys/installdir/gaussian16/C01/AVX/g16/l9999.exe)
 Unable to Open any file for archive entry.
 1\1\GINC-NOTCH132\SP\RAPFD\6-31G(d)\C13H13F1N2O2S1\U1318517\04-Oct-202
 4\0\\#p apfd/6-31G* volume NMR pop=NPA geom=check guess=read\\ID-4003\
 \0,1\C,0,1.0687593273,0.1640146146,0.1221833366\N,0,2.5083293309,0.104
 9032489,0.0284254608\C,0,3.1352847793,-1.111533453,-0.4308293283\C,0,3
 .2461776131,1.2634595784,0.1183121601\C,0,2.6431747779,2.4950221275,0.
 4574844961\C,0,3.4025024854,3.6535370019,0.5576744801\C,0,4.773041888,
 3.6440525608,0.3203471407\C,0,5.3898874322,2.4365701918,-0.0262367924\
 C,0,6.8396071894,2.3900037096,-0.2877134249\C,0,7.497729939,3.41089948
 82,-0.9810999322\C,0,8.8674413869,3.3239020871,-1.2054063567\C,0,9.505
 6665305,2.1893293805,-0.7212905892\S,0,11.2584135999,1.9973198681,-1.0
 267656656\F,0,11.7889798235,2.1337178675,0.4832033231\O,0,11.569662985
 8,0.6541906993,-1.4475665939\O,0,11.7424764095,3.1634759025,-1.7327909
 221\N,0,8.9276571837,1.2013404312,-0.0562446895\C,0,7.6226603118,1.310
 6546042,0.1599323883\C,0,4.6338919887,1.2662618957,-0.1290965993\H,0,0
 .6615459799,-0.8421651519,0.0122662362\H,0,0.6234608882,0.7998880741,-
 0.6578805781\H,0,0.7468378283,0.5457552449,1.099658886\H,0,2.405854465
 4,-1.9224646886,-0.4044057563\H,0,3.970246454,-1.3979016177,0.22129605
 79\H,0,3.5170303362,-1.0282095591,-1.4600354095\H,0,1.5765139946,2.550
 8750991,0.6444794392\H,0,2.9096255962,4.5832154699,0.8325169035\H,0,5.
 3619287189,4.5497637079,0.4349654975\H,0,6.9320815403,4.2573621452,-1.
 3612787062\H,0,9.4202839144,4.0882908307,-1.7405823203\H,0,7.165124083
 8,0.5092824793,0.7361990651\H,0,5.1329812173,0.3574661615,-0.446411206
 7\\Version=ES64L-G16RevC.01\State=1-A\HF=-1260.3444255\RMSD=7.354e-10\
 Dipole=-3.4461752,0.1196396,0.2235528\Quadrupole=-5.4951633,7.8749759,
 -2.3798126,8.5274187,2.9927326,-0.5236933\PG=C01 [X(C13H13F1N2O2S1)]\\
 @
 The archive entry for this job was punched.


 A politician is a person who can make waves and then
 make you think he's the only one who can save the ship.
 -- Ivern Ball
 Job cpu time:       0 days  0 hours  8 minutes 45.5 seconds.
 Elapsed time:       0 days  0 hours  0 minutes 39.4 seconds.
 File lengths (MBytes):  RWF=     74 Int=      0 D2E=      0 Chk=     12 Scr=      2
 Normal termination of Gaussian 16 at Fri Oct  4 16:57:10 2024.
