 Entering Gaussian System, Link 0=g16
 Input=ID-4004.com
 Output=ID-4004.log
 Initial command:
 /uufs/chpc.utah.edu/sys/installdir/gaussian16/C01/AVX/g16/l1.exe "/scratch/general/vast/u1318517/1930434-notchpeak.peaks/Gau-603325.inp" -scrdir="/scratch/general/vast/u1318517/1930434-notchpeak.peaks/"
 Entering Link 1 = /uufs/chpc.utah.edu/sys/installdir/gaussian16/C01/AVX/g16/l1.exe PID=    603326.
  
 Copyright (c) 1988-2019, Gaussian, Inc.  All Rights Reserved.
  
 This is part of the Gaussian(R) 16 program.  It is based on
 the Gaussian(R) 09 system (copyright 2009, Gaussian, Inc.),
 the Gaussian(R) 03 system (copyright 2003, Gaussian, Inc.),
 the Gaussian(R) 98 system (copyright 1998, Gaussian, Inc.),
 the Gaussian(R) 94 system (copyright 1995, Gaussian, Inc.),
 the Gaussian 92(TM) system (copyright 1992, Gaussian, Inc.),
 the Gaussian 90(TM) system (copyright 1990, Gaussian, Inc.),
 the Gaussian 88(TM) system (copyright 1988, Gaussian, Inc.),
 the Gaussian 86(TM) system (copyright 1986, Carnegie Mellon
 University), and the Gaussian 82(TM) system (copyright 1983,
 Carnegie Mellon University). Gaussian is a federally registered
 trademark of Gaussian, Inc.
  
 This software contains proprietary and confidential information,
 including trade secrets, belonging to Gaussian, Inc.
  
 This software is provided under written license and may be
 used, copied, transmitted, or stored only in accord with that
 written license.
  
 The following legend is applicable only to US Government
 contracts under FAR:
  
                    RESTRICTED RIGHTS LEGEND
  
 Use, reproduction and disclosure by the US Government is
 subject to restrictions as set forth in subparagraphs (a)
 and (c) of the Commercial Computer Software - Restricted
 Rights clause in FAR 52.227-19.
  
 Gaussian, Inc.
 340 Quinnipiac St., Bldg. 40, Wallingford CT 06492
  
  
 ---------------------------------------------------------------
 Warning -- This program may not be used in any manner that
 competes with the business of Gaussian, Inc. or will provide
 assistance to any competitor of Gaussian, Inc.  The licensee
 of this program is prohibited from giving any competitor of
 Gaussian, Inc. access to this program.  By using this program,
 the user acknowledges that Gaussian, Inc. is engaged in the
 business of creating and licensing software in the field of
 computational chemistry and represents and warrants to the
 licensee that it is not a competitor of Gaussian, Inc. and that
 it will not use this program in any manner prohibited above.
 ---------------------------------------------------------------
  

 Cite this work as:
 Gaussian 16, Revision C.01,
 M. J. Frisch, G. W. Trucks, H. B. Schlegel, G. E. Scuseria, 
 M. A. Robb, J. R. Cheeseman, G. Scalmani, V. Barone, 
 G. A. Petersson, H. Nakatsuji, X. Li, M. Caricato, A. V. Marenich, 
 J. Bloino, B. G. Janesko, R. Gomperts, B. Mennucci, H. P. Hratchian, 
 J. V. Ortiz, A. F. Izmaylov, J. L. Sonnenberg, D. Williams-Young, 
 F. Ding, F. Lipparini, F. Egidi, J. Goings, B. Peng, A. Petrone, 
 T. Henderson, D. Ranasinghe, V. G. Zakrzewski, J. Gao, N. Rega, 
 G. Zheng, W. Liang, M. Hada, M. Ehara, K. Toyota, R. Fukuda, 
 J. Hasegawa, M. Ishida, T. Nakajima, Y. Honda, O. Kitao, H. Nakai, 
 T. Vreven, K. Throssell, J. A. Montgomery, Jr., J. E. Peralta, 
 F. Ogliaro, M. J. Bearpark, J. J. Heyd, E. N. Brothers, K. N. Kudin, 
 V. N. Staroverov, T. A. Keith, R. Kobayashi, J. Normand, 
 K. Raghavachari, A. P. Rendell, J. C. Burant, S. S. Iyengar, 
 J. Tomasi, M. Cossi, J. M. Millam, M. Klene, C. Adamo, R. Cammi, 
 J. W. Ochterski, R. L. Martin, K. Morokuma, O. Farkas, 
 J. B. Foresman, and D. J. Fox, Gaussian, Inc., Wallingford CT, 2019.
 
 ******************************************
 Gaussian 16:  ES64L-G16RevC.01  3-Jul-2019
                 4-Oct-2024 
 ******************************************
 %nprocs=16
 Will use up to   16 processors via shared memory.
 %mem=16000MB
 %chk=ID-4004.chk
 -------------------------------
 #p apfd/6-31G* opt freq=noraman
 -------------------------------
 1/18=20,19=15,26=3,38=1/1,3;
 2/9=110,12=2,17=6,18=5,40=1/2;
 3/5=1,6=6,7=1,11=2,25=1,30=1,71=1,74=-44/1,2,3;
 4//1;
 5/5=2,38=5/2;
 6/7=2,8=2,9=2,10=2,28=1/1;
 7//1,2,3,16;
 1/18=20,19=15,26=3/3(2);
 2/9=110/2;
 99//99;
 2/9=110/2;
 3/5=1,6=6,7=1,11=2,25=1,30=1,71=1,74=-44/1,2,3;
 4/5=5,16=3,69=1/1;
 5/5=2,38=5/2;
 7//1,2,3,16;
 1/18=20,19=15,26=3/3(-5);
 2/9=110/2;
 6/7=2,8=2,9=2,10=2,19=2,28=1/1;
 99/9=1/99;
 Leave Link    1 at Fri Oct  4 16:25:32 2024, MaxMem=  2097152000 cpu:               1.1 elap:               0.1
 (Enter /uufs/chpc.utah.edu/sys/installdir/gaussian16/C01/AVX/g16/l101.exe)
 -------
 ID-4004
 -------
 Symbolic Z-matrix:
 Charge =  0 Multiplicity = 1
 F                     5.21657   0.5287    0.35793 
 S                     3.83088  -0.16985   0.02589 
 C                     3.7277   -0.3218   -1.74221 
 C                     2.99803  -1.34891  -2.31177 
 C                     3.04207  -1.47377  -3.70017 
 C                     3.81579  -0.59752  -4.48352 
 C                     3.92669  -0.75071  -5.95218 
 C                     3.91861  -2.02593  -6.55125 
 C                     4.01317  -2.18196  -7.93635 
 O                     3.95509  -3.46632  -8.41505 
 C                     3.69766  -3.48194  -9.82428 
 C                     4.59221  -2.4845   -10.54202 
 O                     4.30196  -1.14617  -10.11938 
 C                     4.16698  -1.06651  -8.75772 
 C                     4.1762    0.20461  -8.19597 
 C                     4.05217   0.36035  -6.80883 
 C                     4.49776   0.40476  -3.78102 
 N                     4.48388   0.5665   -2.43381 
 O                     3.93717  -1.50826   0.58035 
 O                     2.80144   0.7516    0.46582 
 H                     2.42673  -2.04473  -1.70512 
 H                     2.46773  -2.27291  -4.16539 
 H                     3.83964  -2.9253   -5.9447 
 H                     2.63576  -3.25926  -9.988 
 H                     3.89267  -4.49637  -10.18594 
 H                     4.42675  -2.53574  -11.62206 
 H                     5.65395  -2.68833  -10.34815 
 H                     4.28404   1.07787  -8.83433 
 H                     4.04811   1.37382  -6.41201 
 H                     5.12459   1.12759  -4.29928 
 
 ITRead=  0  0  0  0  0  0  0  0  0  0  0  0  0  0  0  0  0  0  0  0
 ITRead=  0  0  0  0  0  0  0  0  0  0
 MicOpt= -1 -1 -1 -1 -1 -1 -1 -1 -1 -1 -1 -1 -1 -1 -1 -1 -1 -1 -1 -1
 MicOpt= -1 -1 -1 -1 -1 -1 -1 -1 -1 -1
 NAtoms=     30 NQM=       30 NQMF=       0 NMMI=      0 NMMIF=      0
                NMic=       0 NMicF=      0.
                    Isotopes and Nuclear Properties:
 (Nuclear quadrupole moments (NQMom) in fm**2, nuclear magnetic moments (NMagM)
  in nuclear magnetons)

  Atom         1           2           3           4           5           6           7           8           9          10
 IAtWgt=          19          32          12          12          12          12          12          12          12          16
 AtmWgt=  18.9984032  31.9720718  12.0000000  12.0000000  12.0000000  12.0000000  12.0000000  12.0000000  12.0000000  15.9949146
 NucSpn=           1           0           0           0           0           0           0           0           0           0
 AtZEff=  -0.0000000  -0.0000000  -0.0000000  -0.0000000  -0.0000000  -0.0000000  -0.0000000  -0.0000000  -0.0000000  -0.0000000
 NQMom=    0.0000000   0.0000000   0.0000000   0.0000000   0.0000000   0.0000000   0.0000000   0.0000000   0.0000000   0.0000000
 NMagM=    2.6288670   0.0000000   0.0000000   0.0000000   0.0000000   0.0000000   0.0000000   0.0000000   0.0000000   0.0000000
 AtZNuc=   9.0000000  16.0000000   6.0000000   6.0000000   6.0000000   6.0000000   6.0000000   6.0000000   6.0000000   8.0000000

  Atom        11          12          13          14          15          16          17          18          19          20
 IAtWgt=          12          12          16          12          12          12          12          14          16          16
 AtmWgt=  12.0000000  12.0000000  15.9949146  12.0000000  12.0000000  12.0000000  12.0000000  14.0030740  15.9949146  15.9949146
 NucSpn=           0           0           0           0           0           0           0           2           0           0
 AtZEff=  -0.0000000  -0.0000000  -0.0000000  -0.0000000  -0.0000000  -0.0000000  -0.0000000  -0.0000000  -0.0000000  -0.0000000
 NQMom=    0.0000000   0.0000000   0.0000000   0.0000000   0.0000000   0.0000000   0.0000000   2.0440000   0.0000000   0.0000000
 NMagM=    0.0000000   0.0000000   0.0000000   0.0000000   0.0000000   0.0000000   0.0000000   0.4037610   0.0000000   0.0000000
 AtZNuc=   6.0000000   6.0000000   8.0000000   6.0000000   6.0000000   6.0000000   6.0000000   7.0000000   8.0000000   8.0000000

  Atom        21          22          23          24          25          26          27          28          29          30
 IAtWgt=           1           1           1           1           1           1           1           1           1           1
 AtmWgt=   1.0078250   1.0078250   1.0078250   1.0078250   1.0078250   1.0078250   1.0078250   1.0078250   1.0078250   1.0078250
 NucSpn=           1           1           1           1           1           1           1           1           1           1
 AtZEff=  -0.0000000  -0.0000000  -0.0000000  -0.0000000  -0.0000000  -0.0000000  -0.0000000  -0.0000000  -0.0000000  -0.0000000
 NQMom=    0.0000000   0.0000000   0.0000000   0.0000000   0.0000000   0.0000000   0.0000000   0.0000000   0.0000000   0.0000000
 NMagM=    2.7928460   2.7928460   2.7928460   2.7928460   2.7928460   2.7928460   2.7928460   2.7928460   2.7928460   2.7928460
 AtZNuc=   1.0000000   1.0000000   1.0000000   1.0000000   1.0000000   1.0000000   1.0000000   1.0000000   1.0000000   1.0000000
 Leave Link  101 at Fri Oct  4 16:25:33 2024, MaxMem=  2097152000 cpu:              10.6 elap:               0.7
 (Enter /uufs/chpc.utah.edu/sys/installdir/gaussian16/C01/AVX/g16/l103.exe)

 GradGradGradGradGradGradGradGradGradGradGradGradGradGradGradGradGradGrad
 Berny optimization.
 Initialization pass.
                           ----------------------------
                           !    Initial Parameters    !
                           ! (Angstroms and Degrees)  !
 --------------------------                            --------------------------
 ! Name  Definition              Value          Derivative Info.                !
 --------------------------------------------------------------------------------
 ! R1    R(1,2)                  1.5869         estimate D2E/DX2                !
 ! R2    R(2,3)                  1.7776         estimate D2E/DX2                !
 ! R3    R(2,19)                 1.4526         estimate D2E/DX2                !
 ! R4    R(2,20)                 1.45           estimate D2E/DX2                !
 ! R5    R(3,4)                  1.3827         estimate D2E/DX2                !
 ! R6    R(3,18)                 1.3562         estimate D2E/DX2                !
 ! R7    R(4,5)                  1.3947         estimate D2E/DX2                !
 ! R8    R(4,21)                 1.0856         estimate D2E/DX2                !
 ! R9    R(5,6)                  1.4072         estimate D2E/DX2                !
 ! R10   R(5,22)                 1.0885         estimate D2E/DX2                !
 ! R11   R(6,7)                  1.4808         estimate D2E/DX2                !
 ! R12   R(6,17)                 1.4011         estimate D2E/DX2                !
 ! R13   R(7,8)                  1.4089         estimate D2E/DX2                !
 ! R14   R(7,16)                 1.4086         estimate D2E/DX2                !
 ! R15   R(8,9)                  1.3971         estimate D2E/DX2                !
 ! R16   R(8,23)                 1.0877         estimate D2E/DX2                !
 ! R17   R(9,10)                 1.3719         estimate D2E/DX2                !
 ! R18   R(9,14)                 1.3937         estimate D2E/DX2                !
 ! R19   R(10,11)                1.4326         estimate D2E/DX2                !
 ! R20   R(11,12)                1.52           estimate D2E/DX2                !
 ! R21   R(11,24)                1.0973         estimate D2E/DX2                !
 ! R22   R(11,25)                1.0945         estimate D2E/DX2                !
 ! R23   R(12,13)                1.4332         estimate D2E/DX2                !
 ! R24   R(12,26)                1.0938         estimate D2E/DX2                !
 ! R25   R(12,27)                1.0984         estimate D2E/DX2                !
 ! R26   R(13,14)                1.3707         estimate D2E/DX2                !
 ! R27   R(14,15)                1.3897         estimate D2E/DX2                !
 ! R28   R(15,16)                1.4014         estimate D2E/DX2                !
 ! R29   R(15,28)                1.0871         estimate D2E/DX2                !
 ! R30   R(16,29)                1.0884         estimate D2E/DX2                !
 ! R31   R(17,18)                1.357          estimate D2E/DX2                !
 ! R32   R(17,30)                1.0881         estimate D2E/DX2                !
 ! A1    A(1,2,3)              107.243          estimate D2E/DX2                !
 ! A2    A(1,2,19)             105.1784         estimate D2E/DX2                !
 ! A3    A(1,2,20)             106.0647         estimate D2E/DX2                !
 ! A4    A(3,2,19)             107.7669         estimate D2E/DX2                !
 ! A5    A(3,2,20)             108.3547         estimate D2E/DX2                !
 ! A6    A(19,2,20)            121.4453         estimate D2E/DX2                !
 ! A7    A(2,3,4)              120.2552         estimate D2E/DX2                !
 ! A8    A(2,3,18)             114.764          estimate D2E/DX2                !
 ! A9    A(4,3,18)             124.8027         estimate D2E/DX2                !
 ! A10   A(3,4,5)              117.3811         estimate D2E/DX2                !
 ! A11   A(3,4,21)             121.5771         estimate D2E/DX2                !
 ! A12   A(5,4,21)             121.0321         estimate D2E/DX2                !
 ! A13   A(4,5,6)              121.0503         estimate D2E/DX2                !
 ! A14   A(4,5,22)             118.3276         estimate D2E/DX2                !
 ! A15   A(6,5,22)             120.6205         estimate D2E/DX2                !
 ! A16   A(5,6,7)              121.9305         estimate D2E/DX2                !
 ! A17   A(5,6,17)             115.7191         estimate D2E/DX2                !
 ! A18   A(7,6,17)             122.3322         estimate D2E/DX2                !
 ! A19   A(6,7,8)              120.9915         estimate D2E/DX2                !
 ! A20   A(6,7,16)             121.8882         estimate D2E/DX2                !
 ! A21   A(8,7,16)             117.1193         estimate D2E/DX2                !
 ! A22   A(7,8,9)              121.4829         estimate D2E/DX2                !
 ! A23   A(7,8,23)             120.7775         estimate D2E/DX2                !
 ! A24   A(9,8,23)             117.7396         estimate D2E/DX2                !
 ! A25   A(8,9,10)             116.5921         estimate D2E/DX2                !
 ! A26   A(8,9,14)             120.1565         estimate D2E/DX2                !
 ! A27   A(10,9,14)            123.25           estimate D2E/DX2                !
 ! A28   A(9,10,11)            111.1645         estimate D2E/DX2                !
 ! A29   A(10,11,12)           110.5845         estimate D2E/DX2                !
 ! A30   A(10,11,24)           108.5693         estimate D2E/DX2                !
 ! A31   A(10,11,25)           107.6457         estimate D2E/DX2                !
 ! A32   A(12,11,24)           111.4649         estimate D2E/DX2                !
 ! A33   A(12,11,25)           110.3242         estimate D2E/DX2                !
 ! A34   A(24,11,25)           108.1329         estimate D2E/DX2                !
 ! A35   A(11,12,13)           110.754          estimate D2E/DX2                !
 ! A36   A(11,12,26)           110.2727         estimate D2E/DX2                !
 ! A37   A(11,12,27)           111.3326         estimate D2E/DX2                !
 ! A38   A(13,12,26)           107.7152         estimate D2E/DX2                !
 ! A39   A(13,12,27)           108.4822         estimate D2E/DX2                !
 ! A40   A(26,12,27)           108.1681         estimate D2E/DX2                !
 ! A41   A(12,13,14)           111.5418         estimate D2E/DX2                !
 ! A42   A(9,14,13)            123.3542         estimate D2E/DX2                !
 ! A43   A(9,14,15)            119.6388         estimate D2E/DX2                !
 ! A44   A(13,14,15)           117.0047         estimate D2E/DX2                !
 ! A45   A(14,15,16)           120.0776         estimate D2E/DX2                !
 ! A46   A(14,15,28)           119.8705         estimate D2E/DX2                !
 ! A47   A(16,15,28)           120.0515         estimate D2E/DX2                !
 ! A48   A(7,16,15)            121.4817         estimate D2E/DX2                !
 ! A49   A(7,16,29)            120.8253         estimate D2E/DX2                !
 ! A50   A(15,16,29)           117.6914         estimate D2E/DX2                !
 ! A51   A(6,17,18)            125.3147         estimate D2E/DX2                !
 ! A52   A(6,17,30)            121.1167         estimate D2E/DX2                !
 ! A53   A(18,17,30)           113.5522         estimate D2E/DX2                !
 ! A54   A(3,18,17)            115.7175         estimate D2E/DX2                !
 ! D1    D(1,2,3,4)            151.4469         estimate D2E/DX2                !
 ! D2    D(1,2,3,18)           -23.9328         estimate D2E/DX2                !
 ! D3    D(19,2,3,4)            38.6585         estimate D2E/DX2                !
 ! D4    D(19,2,3,18)         -136.7212         estimate D2E/DX2                !
 ! D5    D(20,2,3,4)           -94.4581         estimate D2E/DX2                !
 ! D6    D(20,2,3,18)           90.1622         estimate D2E/DX2                !
 ! D7    D(2,3,4,5)           -175.1322         estimate D2E/DX2                !
 ! D8    D(2,3,4,21)             3.7458         estimate D2E/DX2                !
 ! D9    D(18,3,4,5)            -0.2427         estimate D2E/DX2                !
 ! D10   D(18,3,4,21)          178.6352         estimate D2E/DX2                !
 ! D11   D(2,3,18,17)          175.2905         estimate D2E/DX2                !
 ! D12   D(4,3,18,17)            0.1514         estimate D2E/DX2                !
 ! D13   D(3,4,5,6)              0.8839         estimate D2E/DX2                !
 ! D14   D(3,4,5,22)          -179.5816         estimate D2E/DX2                !
 ! D15   D(21,4,5,6)          -178.0005         estimate D2E/DX2                !
 ! D16   D(21,4,5,22)            1.534          estimate D2E/DX2                !
 ! D17   D(4,5,6,7)            177.1114         estimate D2E/DX2                !
 ! D18   D(4,5,6,17)            -1.3702         estimate D2E/DX2                !
 ! D19   D(22,5,6,7)            -2.4125         estimate D2E/DX2                !
 ! D20   D(22,5,6,17)          179.1059         estimate D2E/DX2                !
 ! D21   D(5,6,7,8)            -34.1072         estimate D2E/DX2                !
 ! D22   D(5,6,7,16)           146.2753         estimate D2E/DX2                !
 ! D23   D(17,6,7,8)           144.2737         estimate D2E/DX2                !
 ! D24   D(17,6,7,16)          -35.3437         estimate D2E/DX2                !
 ! D25   D(5,6,17,18)            1.3379         estimate D2E/DX2                !
 ! D26   D(5,6,17,30)          179.7658         estimate D2E/DX2                !
 ! D27   D(7,6,17,18)         -177.137          estimate D2E/DX2                !
 ! D28   D(7,6,17,30)            1.291          estimate D2E/DX2                !
 ! D29   D(6,7,8,9)            179.544          estimate D2E/DX2                !
 ! D30   D(6,7,8,23)            -0.5588         estimate D2E/DX2                !
 ! D31   D(16,7,8,9)            -0.821          estimate D2E/DX2                !
 ! D32   D(16,7,8,23)          179.0762         estimate D2E/DX2                !
 ! D33   D(6,7,16,15)          179.0528         estimate D2E/DX2                !
 ! D34   D(6,7,16,29)           -1.4236         estimate D2E/DX2                !
 ! D35   D(8,7,16,15)           -0.5787         estimate D2E/DX2                !
 ! D36   D(8,7,16,29)          178.9449         estimate D2E/DX2                !
 ! D37   D(7,8,9,10)          -178.0978         estimate D2E/DX2                !
 ! D38   D(7,8,9,14)             2.3103         estimate D2E/DX2                !
 ! D39   D(23,8,9,10)            2.002          estimate D2E/DX2                !
 ! D40   D(23,8,9,14)         -177.5899         estimate D2E/DX2                !
 ! D41   D(8,9,10,11)          164.2719         estimate D2E/DX2                !
 ! D42   D(14,9,10,11)         -16.15           estimate D2E/DX2                !
 ! D43   D(8,9,14,13)          178.2065         estimate D2E/DX2                !
 ! D44   D(8,9,14,15)           -2.3649         estimate D2E/DX2                !
 ! D45   D(10,9,14,13)          -1.3571         estimate D2E/DX2                !
 ! D46   D(10,9,14,15)         178.0715         estimate D2E/DX2                !
 ! D47   D(9,10,11,12)          46.4544         estimate D2E/DX2                !
 ! D48   D(9,10,11,24)         -76.1287         estimate D2E/DX2                !
 ! D49   D(9,10,11,25)         167.0387         estimate D2E/DX2                !
 ! D50   D(10,11,12,13)        -63.657          estimate D2E/DX2                !
 ! D51   D(10,11,12,26)        177.2086         estimate D2E/DX2                !
 ! D52   D(10,11,12,27)         57.1359         estimate D2E/DX2                !
 ! D53   D(24,11,12,13)         57.2199         estimate D2E/DX2                !
 ! D54   D(24,11,12,26)        -61.9145         estimate D2E/DX2                !
 ! D55   D(24,11,12,27)        178.0127         estimate D2E/DX2                !
 ! D56   D(25,11,12,13)        177.3694         estimate D2E/DX2                !
 ! D57   D(25,11,12,26)         58.235          estimate D2E/DX2                !
 ! D58   D(25,11,12,27)        -61.8378         estimate D2E/DX2                !
 ! D59   D(11,12,13,14)         44.6253         estimate D2E/DX2                !
 ! D60   D(26,12,13,14)        165.2907         estimate D2E/DX2                !
 ! D61   D(27,12,13,14)        -77.8437         estimate D2E/DX2                !
 ! D62   D(12,13,14,9)         -14.2316         estimate D2E/DX2                !
 ! D63   D(12,13,14,15)        166.3258         estimate D2E/DX2                !
 ! D64   D(9,14,15,16)           0.9848         estimate D2E/DX2                !
 ! D65   D(9,14,15,28)        -179.2728         estimate D2E/DX2                !
 ! D66   D(13,14,15,16)       -179.551          estimate D2E/DX2                !
 ! D67   D(13,14,15,28)          0.1915         estimate D2E/DX2                !
 ! D68   D(14,15,16,7)           0.4992         estimate D2E/DX2                !
 ! D69   D(14,15,16,29)       -179.0388         estimate D2E/DX2                !
 ! D70   D(28,15,16,7)        -179.2428         estimate D2E/DX2                !
 ! D71   D(28,15,16,29)          1.2192         estimate D2E/DX2                !
 ! D72   D(6,17,18,3)           -0.7387         estimate D2E/DX2                !
 ! D73   D(30,17,18,3)        -179.2706         estimate D2E/DX2                !
 --------------------------------------------------------------------------------
 Trust Radius=3.00D-01 FncErr=1.00D-07 GrdErr=1.00D-06 EigMax=2.50D+02 EigMin=1.00D-04
 Number of steps in this run=    169 maximum allowed number of steps=    180.
 GradGradGradGradGradGradGradGradGradGradGradGradGradGradGradGradGradGrad

 Leave Link  103 at Fri Oct  4 16:25:33 2024, MaxMem=  2097152000 cpu:               0.3 elap:               0.0
 (Enter /uufs/chpc.utah.edu/sys/installdir/gaussian16/C01/AVX/g16/l202.exe)
                          Input orientation:                          
 ---------------------------------------------------------------------
 Center     Atomic      Atomic             Coordinates (Angstroms)
 Number     Number       Type             X           Y           Z
 ---------------------------------------------------------------------
      1          9           0        5.216570    0.528700    0.357930
      2         16           0        3.830880   -0.169850    0.025890
      3          6           0        3.727700   -0.321800   -1.742210
      4          6           0        2.998030   -1.348910   -2.311770
      5          6           0        3.042070   -1.473770   -3.700170
      6          6           0        3.815790   -0.597520   -4.483520
      7          6           0        3.926690   -0.750710   -5.952180
      8          6           0        3.918610   -2.025930   -6.551250
      9          6           0        4.013170   -2.181960   -7.936350
     10          8           0        3.955090   -3.466320   -8.415050
     11          6           0        3.697660   -3.481940   -9.824280
     12          6           0        4.592210   -2.484500  -10.542020
     13          8           0        4.301960   -1.146170  -10.119380
     14          6           0        4.166980   -1.066510   -8.757720
     15          6           0        4.176200    0.204610   -8.195970
     16          6           0        4.052170    0.360350   -6.808830
     17          6           0        4.497760    0.404760   -3.781020
     18          7           0        4.483880    0.566500   -2.433810
     19          8           0        3.937170   -1.508260    0.580350
     20          8           0        2.801440    0.751600    0.465820
     21          1           0        2.426730   -2.044730   -1.705120
     22          1           0        2.467730   -2.272910   -4.165390
     23          1           0        3.839640   -2.925300   -5.944700
     24          1           0        2.635760   -3.259260   -9.988000
     25          1           0        3.892670   -4.496370  -10.185940
     26          1           0        4.426750   -2.535740  -11.622060
     27          1           0        5.653950   -2.688330  -10.348150
     28          1           0        4.284040    1.077870   -8.834330
     29          1           0        4.048110    1.373820   -6.412010
     30          1           0        5.124590    1.127590   -4.299280
 ---------------------------------------------------------------------
                    Distance matrix (angstroms):
                    1          2          3          4          5
     1  F    0.000000
     2  S    1.586934   0.000000
     3  C    2.711212   1.777614   0.000000
     4  C    3.946471   2.747449   1.382668   0.000000
     5  C    5.020609   4.025662   2.372916   1.394699   0.000000
     6  C    5.164319   4.529670   2.756549   2.439225   1.407158
     7  C    6.566443   6.006987   4.236438   3.804318   2.525256
     8  C    7.479813   6.834581   5.105622   4.390787   3.033457
     9  C    8.808571   8.214565   6.473721   5.775845   4.403384
    10  O    9.721970   9.062649   7.380143   6.530652   5.199419
    11  C   11.048517  10.392956   8.677975   7.840734   6.478215
    12  C   11.325993  10.845181   9.102819   8.459787   7.087695
    13  O   10.649682  10.203020   8.437200   7.918340   6.549878
    14  C    9.313507   8.835653   7.068588   6.557169   5.197124
    15  C    8.623028   8.237624   6.490707   6.198816   4.931068
    16  C    7.262687   6.858825   5.122621   4.925072   3.748075
    17  C    4.202732   3.907361   2.297309   2.735552   2.377908
    18  N    2.886534   2.649291   1.356169   2.427229   2.800926
    19  O    2.415686   1.452606   2.616458   3.044952   4.373242
    20  O    2.427793   1.449950   2.624032   3.487950   4.729233
    21  H    4.319945   2.912595   2.159256   1.085621   2.164454
    22  H    5.988787   4.883428   3.356509   2.137967   1.088541
    23  H    7.317732   6.575753   4.944862   4.048641   2.789439
    24  H   11.315807  10.547548   8.821228   7.918660   6.549036
    25  H   11.754881  11.090720   9.420766   8.526983   7.205890
    26  H   12.390915  11.900724  10.148972   9.493751   8.111810
    27  H   11.187526  10.829914   9.130888   8.569210   7.245185
    28  H    9.255747   8.959110   7.250294   7.077208   5.866256
    29  H    6.921822   6.623946   4.978436   5.032683   4.058936
    30  H    4.696460   4.697247   3.254326   3.821715   3.385690
                    6          7          8          9         10
     6  C    0.000000
     7  C    1.480786   0.000000
     8  C    2.515240   1.408949   0.000000
     9  C    3.804135   2.448037   1.397064   0.000000
    10  O    4.868916   3.666207   2.355802   1.371899   0.000000
    11  C    6.071042   4.743968   3.589082   2.313822   1.432635
    12  C    6.392882   4.951321   4.073115   2.686323   2.427734
    13  O    5.683335   4.202710   3.694927   2.433491   2.899682
    14  C    4.314171   2.833465   2.418819   1.393749   2.433394
    15  C    3.815179   2.451425   2.783301   2.406179   3.684103
    16  C    2.525957   1.408563   2.403855   2.781396   4.151237
    17  C    1.401126   2.524909   3.730663   4.918609   6.062507
    18  N    2.450020   3.797951   4.898320   6.168756   7.233152
    19  O    5.146548   6.576317   7.150388   8.543642   9.206060
    20  O    5.229244   6.686841   7.629024   8.981677   9.899071
    21  H    3.426866   4.686351   5.070605   6.431473   7.027088
    22  H    2.173799   2.763743   2.803280   4.076370   4.657905
    23  H    2.748486   2.176344   1.087661   2.132917   2.531533
    24  H    6.227088   4.924141   3.870150   2.695756   2.063414
    25  H    6.908295   5.652951   4.394851   3.229809   2.049622
    26  H    7.422178   5.965227   5.121643   3.725677   3.372441
    27  H    6.491857   5.105130   4.226893   2.960633   2.688544
    28  H    4.685695   3.431937   3.870345   3.392083   4.575332
    29  H    2.767531   2.177111   3.405064   3.868902   5.239063
    30  H    2.173225   2.773996   4.058380   5.041493   6.277842
                   11         12         13         14         15
    11  C    0.000000
    12  C    1.519953   0.000000
    13  O    2.430655   1.433177   0.000000
    14  C    2.681812   2.318457   1.370651   0.000000
    15  C    4.058454   3.592816   2.353705   1.389746   0.000000
    16  C    4.897122   4.724566   3.645784   2.418116   1.401355
    17  C    7.229633   7.353085   6.528287   5.200153   4.431167
    18  N    8.463277   8.663914   7.876187   6.539035   5.781706
    19  O   10.592880  11.184330  10.712068   9.351337   8.945102
    20  O   11.162985  11.612568  10.858156   9.499680   8.787250
    21  H    8.342757   9.108979   8.667391   7.329703   7.088816
    22  H    5.915870   6.724552   6.331188   5.043049   5.030164
    23  H    3.921881   4.679318   4.561469   3.387526   3.870120
    24  H    1.097279   2.175980   2.694185   2.943871   4.193176
    25  H    1.094484   2.159576   3.375765   3.725453   5.112688
    26  H    2.158444   1.093841   2.050494   3.229638   4.394358
    27  H    2.175161   1.098373   2.063606   2.714930   3.896758
    28  H    4.702734   3.962531   2.568663   2.148939   1.087068
    29  H    5.945150   5.677998   4.489920   3.386989   2.136814
    30  H    7.335497   7.232042   6.302402   5.060512   4.115280
                   16         17         18         19         20
    16  C    0.000000
    17  C    3.060744   0.000000
    18  N    4.401099   1.356955   0.000000
    19  O    7.622658   4.795358   3.699822   0.000000
    20  O    7.391748   4.586224   3.357487   2.531791   0.000000
    21  H    5.871484   3.820802   3.403142   2.791523   3.559895
    22  H    4.053675   3.382112   3.889149   5.026529   5.541401
    23  H    3.404025   4.025411   4.993402   6.677858   7.462722
    24  H    5.021446   7.444373   8.667051  10.791186  11.198071
    25  H    5.917604   8.087658   9.277807  11.173351  11.924427
    26  H    5.629816   8.374574   9.697994  12.255375  12.631907
    27  H    4.938313   7.350590   8.637115  11.125287  11.700935
    28  H    2.161307   5.102421   6.424025   9.769575   9.423234
    29  H    1.088395   2.839608   4.082614   7.563848   7.017542
    30  H    2.834887   1.088114   2.050685   5.671725   5.314562
                   21         22         23         24         25
    21  H    0.000000
    22  H    2.471169   0.000000
    23  H    4.554751   2.339593   0.000000
    24  H    8.374060   5.907953   4.231918   0.000000
    25  H    8.948957   6.574287   4.523184   1.774667   0.000000
    26  H   10.128518   7.714193   5.720915   2.530075   2.488323
    27  H    9.248305   6.967861   4.768464   3.092756   2.529314
    28  H    8.001616   6.027081   4.957098   4.781054   5.749102
    29  H    6.039054   4.565473   4.329465   6.020620   6.980390
    30  H    4.906295   4.317433   4.558993   7.602648   8.234034
                   26         27         28         29         30
    26  H    0.000000
    27  H    1.775430   0.000000
    28  H    4.566178   4.283990   0.000000
    29  H    6.524772   5.879879   2.451710   0.000000
    30  H    8.217668   7.171492   4.612556   2.383918   0.000000
 Stoichiometry    C13H10FNO4S
 Framework group  C1[X(C13H10FNO4S)]
 Deg. of freedom    84
 Full point group                 C1      NOp   1
 Largest Abelian subgroup         C1      NOp   1
 Largest concise Abelian subgroup C1      NOp   1
                         Standard orientation:                         
 ---------------------------------------------------------------------
 Center     Atomic      Atomic             Coordinates (Angstroms)
 Number     Number       Type             X           Y           Z
 ---------------------------------------------------------------------
      1          9           0       -5.192266    0.721442    1.245580
      2         16           0       -4.757458   -0.222556    0.046343
      3          6           0       -2.999508   -0.047805   -0.151110
      4          6           0       -2.247691   -1.093250   -0.654686
      5          6           0       -0.862960   -0.930039   -0.687354
      6          6           0       -0.259354    0.247040   -0.207524
      7          6           0        1.211429    0.415727   -0.174772
      8          6           0        2.061793   -0.679026    0.077283
      9          6           0        3.451041   -0.533402    0.101228
     10          8           0        4.184335   -1.672778    0.316193
     11          6           0        5.559160   -1.477209   -0.036016
     12          6           0        6.076492   -0.167788    0.536734
     13          8           0        5.378038    0.946686   -0.032569
     14          6           0        4.026548    0.723099   -0.079133
     15          6           0        3.213558    1.821523   -0.331931
     16          6           0        1.821634    1.667865   -0.384178
     17          6           0       -1.137218    1.231105    0.265896
     18          7           0       -2.488566    1.118438    0.315808
     19          8           0       -5.019116   -1.573524    0.511624
     20          8           0       -5.404897    0.308488   -1.137367
     21          1           0       -2.710864   -2.014185   -0.995159
     22          1           0       -0.256591   -1.740796   -1.087242
     23          1           0        1.653381   -1.670012    0.262087
     24          1           0        5.646275   -1.499369   -1.129607
     25          1           0        6.128339   -2.320152    0.368182
     26          1           0        7.139119   -0.047195    0.307015
     27          1           0        5.955977   -0.133666    1.627942
     28          1           0        3.659225    2.801157   -0.484950
     29          1           0        1.223082    2.550746   -0.600650
     30          1           0       -0.764689    2.174302    0.660350
 ---------------------------------------------------------------------
 Rotational constants (GHZ):           1.2288309           0.1057957           0.1006892
 Leave Link  202 at Fri Oct  4 16:25:33 2024, MaxMem=  2097152000 cpu:               0.1 elap:               0.0
 (Enter /uufs/chpc.utah.edu/sys/installdir/gaussian16/C01/AVX/g16/l301.exe)
 Standard basis: 6-31G(d) (6D, 7F)
 Ernie: Thresh=  0.10000D-02 Tol=  0.10000D-05 Strict=F.
 There are   324 symmetry adapted cartesian basis functions of A   symmetry.
 There are   324 symmetry adapted basis functions of A   symmetry.
   324 basis functions,   624 primitive gaussians,   324 cartesian basis functions
    76 alpha electrons       76 beta electrons
       nuclear repulsion energy      1604.4695022725 Hartrees.
 IExCor= 3731 DFT=T Ex+Corr=APFD ExCW=0 ScaHFX=  0.229450
 ScaDFX=  1.000000  1.000000  1.000000  1.000000 ScalE2=  1.000000  1.000000
 IRadAn=      5 IRanWt=     -1 IRanGd=            0 ICorTp=0 IEmpDi=211
 NAtoms=   30 NActive=   30 NUniq=   30 SFac= 1.00D+00 NAtFMM=   60 NAOKFM=F Big=F
 Integral buffers will be    131072 words long.
 Raffenetti 2 integral format.
 Two-electron integral symmetry is turned on.
 R6APFD:  NTU= -4 IXU= 1 FactS= 1.050
 R6Disp:  Petersson-Frisch Dispersion energy=       -0.0259912523 Hartrees.
 Nuclear repulsion after empirical dispersion term =     1604.4435110202 Hartrees.
 Leave Link  301 at Fri Oct  4 16:25:33 2024, MaxMem=  2097152000 cpu:               0.9 elap:               0.1
 (Enter /uufs/chpc.utah.edu/sys/installdir/gaussian16/C01/AVX/g16/l302.exe)
 NPDir=0 NMtPBC=     1 NCelOv=     1 NCel=       1 NClECP=     1 NCelD=      1
         NCelK=      1 NCelE2=     1 NClLst=     1 CellRange=     0.0.
 One-electron integrals computed using PRISM.
 One-electron integral symmetry used in STVInt
 NBasis=   324 RedAO= T EigKep=  3.82D-04  NBF=   324
 NBsUse=   324 1.00D-06 EigRej= -1.00D+00 NBFU=   324
 Precomputing XC quadrature grid using
 IXCGrd= 4 IRadAn=           5 IRanWt=          -1 IRanGd=           0 AccXCQ= 0.00D+00.
 Generated NRdTot=       0 NPtTot=           0 NUsed=           0 NTot=          32
 NSgBfM=   318   318   318   318   318 MxSgAt=    30 MxSgA2=    30.
 Leave Link  302 at Fri Oct  4 16:25:34 2024, MaxMem=  2097152000 cpu:               6.1 elap:               0.4
 (Enter /uufs/chpc.utah.edu/sys/installdir/gaussian16/C01/AVX/g16/l303.exe)
 DipDrv:  MaxL=1.
 Leave Link  303 at Fri Oct  4 16:25:34 2024, MaxMem=  2097152000 cpu:               0.9 elap:               0.1
 (Enter /uufs/chpc.utah.edu/sys/installdir/gaussian16/C01/AVX/g16/l401.exe)
 ExpMin= 1.17D-01 ExpMax= 2.19D+04 ExpMxC= 3.30D+03 IAcc=3 IRadAn=         5 AccDes= 0.00D+00
 Harris functional with IExCor= 3731 and IRadAn=       5 diagonalized for initial guess.
 HarFok:  IExCor= 3731 AccDes= 0.00D+00 IRadAn=         5 IDoV= 1 UseB2=F ITyADJ=14
 ICtDFT=  3500011 ScaDFX=  1.000000  1.000000  1.000000  1.000000
 FoFCou: FMM=F IPFlag=           0 FMFlag=      100000 FMFlg1=           0
         NFxFlg=           0 DoJE=T BraDBF=F KetDBF=T FulRan=T
         wScrn=  0.000000 ICntrl=       500 IOpCl=  0 I1Cent=   200000004 NGrid=           0
         NMat0=    1 NMatS0=      1 NMatT0=    0 NMatD0=    1 NMtDS0=    0 NMtDT0=    0
 Petite list used in FoFCou.
 Harris En= -1321.18660476451    
 JPrj=0 DoOrth=F DoCkMO=F.
 Leave Link  401 at Fri Oct  4 16:25:36 2024, MaxMem=  2097152000 cpu:              30.2 elap:               1.9
 (Enter /uufs/chpc.utah.edu/sys/installdir/gaussian16/C01/AVX/g16/l502.exe)
 Integral symmetry usage will be decided dynamically.
 Closed shell SCF:
 Using DIIS extrapolation, IDIIS=  1040.
 NGot=  2097152000 LenX=  2096932709 LenY=  2096827292
 Requested convergence on RMS density matrix=1.00D-08 within 128 cycles.
 Requested convergence on MAX density matrix=1.00D-06.
 Requested convergence on             energy=1.00D-06.
 No special actions if energy rises.
 Fock matrices will be formed incrementally for  20 cycles.
 Integral accuracy reduced to 1.0D-05 until final iterations.

 Cycle   1  Pass 0  IDiag  1:
 FoFJK:  IHMeth= 1 ICntrl=       0 DoSepK=F KAlg= 0 I1Cent=           0 FoldK=F
 IRaf= 710000000 NMat=       1 IRICut=       1 DoRegI=T DoRafI=F ISym2E= 0 IDoP0=0 IntGTp=1.
 FoFCou: FMM=F IPFlag=           0 FMFlag=      100000 FMFlg1=           0
         NFxFlg=           0 DoJE=F BraDBF=F KetDBF=F FulRan=T
         wScrn=  0.000000 ICntrl=         0 IOpCl=  0 I1Cent=           0 NGrid=           0
         NMat0=    1 NMatS0=      1 NMatT0=    0 NMatD0=    1 NMtDS0=    0 NMtDT0=    0
 Symmetry not used in FoFCou.
 E= -1353.65437935674    
 DIIS: error= 6.61D-02 at cycle   1 NSaved=   1.
 NSaved= 1 IEnMin= 1 EnMin= -1353.65437935674     IErMin= 1 ErrMin= 6.61D-02
 ErrMax= 6.61D-02  0.00D+00 EMaxC= 1.00D-01 BMatC= 1.36D+00 BMatP= 1.36D+00
 IDIUse=3 WtCom= 3.39D-01 WtEn= 6.61D-01
 Coeff-Com:  0.100D+01
 Coeff-En:   0.100D+01
 Coeff:      0.100D+01
 Gap=     0.230 Goal=   None    Shift=    0.000
 GapD=    0.230 DampG=1.000 DampE=0.500 DampFc=0.5000 IDamp=-1.
 Damping current iteration by 5.00D-01
 RMSDP=6.00D-03 MaxDP=5.94D-01              OVMax= 2.78D-01

 Cycle   2  Pass 0  IDiag  1:
 RMSU=  3.00D-03    CP:  1.00D+00
 E= -1353.78767608229     Delta-E=       -0.133296725546 Rises=F Damp=T
 DIIS: error= 3.23D-02 at cycle   2 NSaved=   2.
 NSaved= 2 IEnMin= 2 EnMin= -1353.78767608229     IErMin= 2 ErrMin= 3.23D-02
 ErrMax= 3.23D-02  0.00D+00 EMaxC= 1.00D-01 BMatC= 2.63D-01 BMatP= 1.36D+00
 IDIUse=3 WtCom= 6.77D-01 WtEn= 3.23D-01
 Coeff-Com: -0.486D-01 0.105D+01
 Coeff-En:   0.329D+00 0.671D+00
 Coeff:      0.734D-01 0.927D+00
 Gap=     0.283 Goal=   None    Shift=    0.000
 RMSDP=2.41D-03 MaxDP=7.57D-02 DE=-1.33D-01 OVMax= 2.53D-01

 Cycle   3  Pass 0  IDiag  1:
 RMSU=  2.22D-03    CP:  1.01D+00  6.90D-01
 E= -1353.97326059537     Delta-E=       -0.185584513085 Rises=F Damp=F
 DIIS: error= 1.80D-02 at cycle   3 NSaved=   3.
 NSaved= 3 IEnMin= 3 EnMin= -1353.97326059537     IErMin= 3 ErrMin= 1.80D-02
 ErrMax= 1.80D-02  0.00D+00 EMaxC= 1.00D-01 BMatC= 2.01D-01 BMatP= 2.63D-01
 IDIUse=3 WtCom= 8.20D-01 WtEn= 1.80D-01
 Coeff-Com: -0.192D+00 0.584D+00 0.608D+00
 Coeff-En:   0.000D+00 0.194D+00 0.806D+00
 Coeff:     -0.157D+00 0.514D+00 0.644D+00
 Gap=     0.175 Goal=   None    Shift=    0.000
 RMSDP=1.99D-03 MaxDP=6.58D-02 DE=-1.86D-01 OVMax= 1.49D-01

 Cycle   4  Pass 0  IDiag  1:
 RMSU=  1.05D-03    CP:  1.01D+00  1.02D+00  3.85D-01
 E= -1354.10107432430     Delta-E=       -0.127813728923 Rises=F Damp=F
 DIIS: error= 1.05D-02 at cycle   4 NSaved=   4.
 NSaved= 4 IEnMin= 4 EnMin= -1354.10107432430     IErMin= 4 ErrMin= 1.05D-02
 ErrMax= 1.05D-02  0.00D+00 EMaxC= 1.00D-01 BMatC= 5.36D-02 BMatP= 2.01D-01
 IDIUse=3 WtCom= 8.95D-01 WtEn= 1.05D-01
 Coeff-Com: -0.939D-01 0.231D+00 0.413D+00 0.450D+00
 Coeff-En:   0.000D+00 0.000D+00 0.256D+00 0.744D+00
 Coeff:     -0.840D-01 0.207D+00 0.397D+00 0.481D+00
 Gap=     0.171 Goal=   None    Shift=    0.000
 RMSDP=8.66D-04 MaxDP=3.11D-02 DE=-1.28D-01 OVMax= 7.00D-02

 Cycle   5  Pass 0  IDiag  1:
 RMSU=  3.47D-04    CP:  1.01D+00  9.53D-01  6.13D-01  4.55D-01
 E= -1354.14771086458     Delta-E=       -0.046636540280 Rises=F Damp=F
 DIIS: error= 3.47D-03 at cycle   5 NSaved=   5.
 NSaved= 5 IEnMin= 5 EnMin= -1354.14771086458     IErMin= 5 ErrMin= 3.47D-03
 ErrMax= 3.47D-03  0.00D+00 EMaxC= 1.00D-01 BMatC= 3.55D-03 BMatP= 5.36D-02
 IDIUse=3 WtCom= 9.65D-01 WtEn= 3.47D-02
 Coeff-Com: -0.355D-01 0.788D-01 0.188D+00 0.297D+00 0.472D+00
 Coeff-En:   0.000D+00 0.000D+00 0.000D+00 0.220D-01 0.978D+00
 Coeff:     -0.343D-01 0.760D-01 0.182D+00 0.287D+00 0.489D+00
 Gap=     0.164 Goal=   None    Shift=    0.000
 RMSDP=2.29D-04 MaxDP=7.05D-03 DE=-4.66D-02 OVMax= 2.06D-02

 Cycle   6  Pass 0  IDiag  1:
 RMSU=  1.11D-04    CP:  1.01D+00  9.67D-01  5.89D-01  5.56D-01  5.47D-01
 E= -1354.15097897830     Delta-E=       -0.003268113720 Rises=F Damp=F
 DIIS: error= 6.70D-04 at cycle   6 NSaved=   6.
 NSaved= 6 IEnMin= 6 EnMin= -1354.15097897830     IErMin= 6 ErrMin= 6.70D-04
 ErrMax= 6.70D-04  0.00D+00 EMaxC= 1.00D-01 BMatC= 1.76D-04 BMatP= 3.55D-03
 IDIUse=3 WtCom= 9.93D-01 WtEn= 6.70D-03
 Coeff-Com: -0.330D-02 0.546D-02 0.272D-01 0.665D-01 0.235D+00 0.669D+00
 Coeff-En:   0.000D+00 0.000D+00 0.000D+00 0.000D+00 0.000D+00 0.100D+01
 Coeff:     -0.328D-02 0.543D-02 0.270D-01 0.660D-01 0.234D+00 0.671D+00
 Gap=     0.164 Goal=   None    Shift=    0.000
 RMSDP=6.41D-05 MaxDP=1.82D-03 DE=-3.27D-03 OVMax= 5.15D-03

 Cycle   7  Pass 0  IDiag  1:
 RMSU=  4.05D-05    CP:  1.01D+00  9.64D-01  5.98D-01  5.51D-01  6.25D-01
                    CP:  6.75D-01
 E= -1354.15112213192     Delta-E=       -0.000143153623 Rises=F Damp=F
 DIIS: error= 2.23D-04 at cycle   7 NSaved=   7.
 NSaved= 7 IEnMin= 7 EnMin= -1354.15112213192     IErMin= 7 ErrMin= 2.23D-04
 ErrMax= 2.23D-04  0.00D+00 EMaxC= 1.00D-01 BMatC= 4.55D-05 BMatP= 1.76D-04
 IDIUse=3 WtCom= 9.98D-01 WtEn= 2.23D-03
 Coeff-Com:  0.985D-03-0.293D-02-0.544D-03 0.119D-01 0.944D-01 0.428D+00
 Coeff-Com:  0.468D+00
 Coeff-En:   0.000D+00 0.000D+00 0.000D+00 0.000D+00 0.000D+00 0.183D+00
 Coeff-En:   0.817D+00
 Coeff:      0.983D-03-0.292D-02-0.543D-03 0.119D-01 0.942D-01 0.427D+00
 Coeff:      0.469D+00
 Gap=     0.165 Goal=   None    Shift=    0.000
 RMSDP=2.33D-05 MaxDP=1.11D-03 DE=-1.43D-04 OVMax= 2.20D-03

 Cycle   8  Pass 0  IDiag  1:
 RMSU=  1.07D-05    CP:  1.01D+00  9.64D-01  5.95D-01  5.54D-01  6.28D-01
                    CP:  7.45D-01  5.55D-01
 E= -1354.15116363967     Delta-E=       -0.000041507754 Rises=F Damp=F
 DIIS: error= 3.53D-05 at cycle   8 NSaved=   8.
 NSaved= 8 IEnMin= 8 EnMin= -1354.15116363967     IErMin= 8 ErrMin= 3.53D-05
 ErrMax= 3.53D-05  0.00D+00 EMaxC= 1.00D-01 BMatC= 1.92D-06 BMatP= 4.55D-05
 IDIUse=1 WtCom= 1.00D+00 WtEn= 0.00D+00
 Coeff-Com:  0.967D-03-0.234D-02-0.319D-02 0.232D-03 0.303D-01 0.181D+00
 Coeff-Com:  0.246D+00 0.547D+00
 Coeff:      0.967D-03-0.234D-02-0.319D-02 0.232D-03 0.303D-01 0.181D+00
 Coeff:      0.246D+00 0.547D+00
 Gap=     0.165 Goal=   None    Shift=    0.000
 RMSDP=5.30D-06 MaxDP=1.86D-04 DE=-4.15D-05 OVMax= 3.40D-04

 Initial convergence to 1.0D-05 achieved.  Increase integral accuracy.
 Cycle   9  Pass 1  IDiag  1:
 E= -1354.15115545790     Delta-E=        0.000008181773 Rises=F Damp=F
 DIIS: error= 4.95D-05 at cycle   1 NSaved=   1.
 NSaved= 1 IEnMin= 1 EnMin= -1354.15115545790     IErMin= 1 ErrMin= 4.95D-05
 ErrMax= 4.95D-05  0.00D+00 EMaxC= 1.00D-01 BMatC= 6.18D-07 BMatP= 6.18D-07
 IDIUse=1 WtCom= 1.00D+00 WtEn= 0.00D+00
 Coeff-Com:  0.100D+01
 Coeff:      0.100D+01
 Gap=     0.165 Goal=   None    Shift=    0.000
 RMSDP=5.30D-06 MaxDP=1.86D-04 DE= 8.18D-06 OVMax= 3.50D-04

 Cycle  10  Pass 1  IDiag  1:
 RMSU=  3.42D-05    CP:  1.00D+00
 E= -1354.15115549753     Delta-E=       -0.000000039630 Rises=F Damp=F
 DIIS: error= 3.12D-05 at cycle   2 NSaved=   2.
 NSaved= 2 IEnMin= 2 EnMin= -1354.15115549753     IErMin= 2 ErrMin= 3.12D-05
 ErrMax= 3.12D-05  0.00D+00 EMaxC= 1.00D-01 BMatC= 5.98D-07 BMatP= 6.18D-07
 IDIUse=1 WtCom= 1.00D+00 WtEn= 0.00D+00
 Coeff-Com:  0.495D+00 0.505D+00
 Coeff:      0.495D+00 0.505D+00
 Gap=     0.165 Goal=   None    Shift=    0.000
 RMSDP=3.38D-06 MaxDP=1.47D-04 DE=-3.96D-08 OVMax= 2.55D-04

 Cycle  11  Pass 1  IDiag  1:
 RMSU=  3.38D-06    CP:  1.00D+00  9.97D-01
 E= -1354.15115589001     Delta-E=       -0.000000392477 Rises=F Damp=F
 DIIS: error= 1.97D-05 at cycle   3 NSaved=   3.
 NSaved= 3 IEnMin= 3 EnMin= -1354.15115589001     IErMin= 3 ErrMin= 1.97D-05
 ErrMax= 1.97D-05  0.00D+00 EMaxC= 1.00D-01 BMatC= 1.69D-07 BMatP= 5.98D-07
 IDIUse=1 WtCom= 1.00D+00 WtEn= 0.00D+00
 Coeff-Com:  0.358D-01 0.343D+00 0.621D+00
 Coeff:      0.358D-01 0.343D+00 0.621D+00
 Gap=     0.165 Goal=   None    Shift=    0.000
 RMSDP=1.38D-06 MaxDP=6.70D-05 DE=-3.92D-07 OVMax= 1.23D-04

 Cycle  12  Pass 1  IDiag  1:
 RMSU=  6.87D-07    CP:  1.00D+00  1.01D+00  6.61D-01
 E= -1354.15115602757     Delta-E=       -0.000000137562 Rises=F Damp=F
 DIIS: error= 4.15D-06 at cycle   4 NSaved=   4.
 NSaved= 4 IEnMin= 4 EnMin= -1354.15115602757     IErMin= 4 ErrMin= 4.15D-06
 ErrMax= 4.15D-06  0.00D+00 EMaxC= 1.00D-01 BMatC= 1.38D-08 BMatP= 1.69D-07
 IDIUse=1 WtCom= 1.00D+00 WtEn= 0.00D+00
 Coeff-Com: -0.253D-02 0.185D+00 0.383D+00 0.434D+00
 Coeff:     -0.253D-02 0.185D+00 0.383D+00 0.434D+00
 Gap=     0.165 Goal=   None    Shift=    0.000
 RMSDP=3.83D-07 MaxDP=1.27D-05 DE=-1.38D-07 OVMax= 2.81D-05

 Cycle  13  Pass 1  IDiag  1:
 RMSU=  1.71D-07    CP:  1.00D+00  1.01D+00  6.73D-01  5.06D-01
 E= -1354.15115604001     Delta-E=       -0.000000012443 Rises=F Damp=F
 DIIS: error= 1.02D-06 at cycle   5 NSaved=   5.
 NSaved= 5 IEnMin= 5 EnMin= -1354.15115604001     IErMin= 5 ErrMin= 1.02D-06
 ErrMax= 1.02D-06  0.00D+00 EMaxC= 1.00D-01 BMatC= 4.32D-10 BMatP= 1.38D-08
 IDIUse=1 WtCom= 1.00D+00 WtEn= 0.00D+00
 Coeff-Com: -0.272D-02 0.976D-01 0.206D+00 0.258D+00 0.441D+00
 Coeff:     -0.272D-02 0.976D-01 0.206D+00 0.258D+00 0.441D+00
 Gap=     0.165 Goal=   None    Shift=    0.000
 RMSDP=8.68D-08 MaxDP=3.33D-06 DE=-1.24D-08 OVMax= 7.55D-06

 Cycle  14  Pass 1  IDiag  1:
 RMSU=  6.66D-08    CP:  1.00D+00  1.01D+00  6.74D-01  5.02D-01  6.77D-01
 E= -1354.15115604045     Delta-E=       -0.000000000441 Rises=F Damp=F
 DIIS: error= 2.21D-07 at cycle   6 NSaved=   6.
 NSaved= 6 IEnMin= 6 EnMin= -1354.15115604045     IErMin= 6 ErrMin= 2.21D-07
 ErrMax= 2.21D-07  0.00D+00 EMaxC= 1.00D-01 BMatC= 2.74D-11 BMatP= 4.32D-10
 IDIUse=1 WtCom= 1.00D+00 WtEn= 0.00D+00
 Coeff-Com: -0.112D-02 0.287D-01 0.622D-01 0.819D-01 0.217D+00 0.612D+00
 Coeff:     -0.112D-02 0.287D-01 0.622D-01 0.819D-01 0.217D+00 0.612D+00
 Gap=     0.165 Goal=   None    Shift=    0.000
 RMSDP=2.56D-08 MaxDP=8.91D-07 DE=-4.41D-10 OVMax= 2.86D-06

 Cycle  15  Pass 1  IDiag  1:
 RMSU=  2.07D-08    CP:  1.00D+00  1.01D+00  6.74D-01  5.11D-01  7.52D-01
                    CP:  9.19D-01
 E= -1354.15115604048     Delta-E=       -0.000000000026 Rises=F Damp=F
 DIIS: error= 1.12D-07 at cycle   7 NSaved=   7.
 NSaved= 7 IEnMin= 7 EnMin= -1354.15115604048     IErMin= 7 ErrMin= 1.12D-07
 ErrMax= 1.12D-07  0.00D+00 EMaxC= 1.00D-01 BMatC= 6.04D-12 BMatP= 2.74D-11
 IDIUse=1 WtCom= 1.00D+00 WtEn= 0.00D+00
 Coeff-Com:  0.463D-04-0.825D-02-0.163D-01-0.187D-01 0.346D-02 0.326D+00
 Coeff-Com:  0.714D+00
 Coeff:      0.463D-04-0.825D-02-0.163D-01-0.187D-01 0.346D-02 0.326D+00
 Coeff:      0.714D+00
 Gap=     0.165 Goal=   None    Shift=    0.000
 RMSDP=1.30D-08 MaxDP=3.60D-07 DE=-2.64D-11 OVMax= 1.61D-06

 Cycle  16  Pass 1  IDiag  1:
 RMSU=  8.99D-09    CP:  1.00D+00  1.01D+00  6.74D-01  5.14D-01  7.73D-01
                    CP:  1.04D+00  8.63D-01
 E= -1354.15115604047     Delta-E=        0.000000000012 Rises=F Damp=F
 DIIS: error= 5.08D-08 at cycle   8 NSaved=   8.
 NSaved= 8 IEnMin= 7 EnMin= -1354.15115604048     IErMin= 8 ErrMin= 5.08D-08
 ErrMax= 5.08D-08  0.00D+00 EMaxC= 1.00D-01 BMatC= 1.53D-12 BMatP= 6.04D-12
 IDIUse=1 WtCom= 1.00D+00 WtEn= 0.00D+00
 Coeff-Com:  0.161D-03-0.861D-02-0.176D-01-0.216D-01-0.241D-01 0.134D+00
 Coeff-Com:  0.454D+00 0.483D+00
 Coeff:      0.161D-03-0.861D-02-0.176D-01-0.216D-01-0.241D-01 0.134D+00
 Coeff:      0.454D+00 0.483D+00
 Gap=     0.165 Goal=   None    Shift=    0.000
 RMSDP=5.12D-09 MaxDP=2.36D-07 DE= 1.18D-11 OVMax= 4.83D-07

 SCF Done:  E(RAPFD) =  -1354.15115604     A.U. after   16 cycles
            NFock= 16  Conv=0.51D-08     -V/T= 2.0072
 KE= 1.344405376845D+03 PE=-6.386751472869D+03 EE= 2.083751428964D+03
 Leave Link  502 at Fri Oct  4 16:26:24 2024, MaxMem=  2097152000 cpu:             760.6 elap:              48.7
 (Enter /uufs/chpc.utah.edu/sys/installdir/gaussian16/C01/AVX/g16/l601.exe)
 Copying SCF densities to generalized density rwf, IOpCl= 0 IROHF=0.

 **********************************************************************

            Population analysis using the SCF Density.

 **********************************************************************

 Orbital symmetries:
       Occupied  (A) (A) (A) (A) (A) (A) (A) (A) (A) (A) (A) (A)
                 (A) (A) (A) (A) (A) (A) (A) (A) (A) (A) (A) (A)
                 (A) (A) (A) (A) (A) (A) (A) (A) (A) (A) (A) (A)
                 (A) (A) (A) (A) (A) (A) (A) (A) (A) (A) (A) (A)
                 (A) (A) (A) (A) (A) (A) (A) (A) (A) (A) (A) (A)
                 (A) (A) (A) (A) (A) (A) (A) (A) (A) (A) (A) (A)
                 (A) (A) (A) (A)
       Virtual   (A) (A) (A) (A) (A) (A) (A) (A) (A) (A) (A) (A)
                 (A) (A) (A) (A) (A) (A) (A) (A) (A) (A) (A) (A)
                 (A) (A) (A) (A) (A) (A) (A) (A) (A) (A) (A) (A)
                 (A) (A) (A) (A) (A) (A) (A) (A) (A) (A) (A) (A)
                 (A) (A) (A) (A) (A) (A) (A) (A) (A) (A) (A) (A)
                 (A) (A) (A) (A) (A) (A) (A) (A) (A) (A) (A) (A)
                 (A) (A) (A) (A) (A) (A) (A) (A) (A) (A) (A) (A)
                 (A) (A) (A) (A) (A) (A) (A) (A) (A) (A) (A) (A)
                 (A) (A) (A) (A) (A) (A) (A) (A) (A) (A) (A) (A)
                 (A) (A) (A) (A) (A) (A) (A) (A) (A) (A) (A) (A)
                 (A) (A) (A) (A) (A) (A) (A) (A) (A) (A) (A) (A)
                 (A) (A) (A) (A) (A) (A) (A) (A) (A) (A) (A) (A)
                 (A) (A) (A) (A) (A) (A) (A) (A) (A) (A) (A) (A)
                 (A) (A) (A) (A) (A) (A) (A) (A) (A) (A) (A) (A)
                 (A) (A) (A) (A) (A) (A) (A) (A) (A) (A) (A) (A)
                 (A) (A) (A) (A) (A) (A) (A) (A) (A) (A) (A) (A)
                 (A) (A) (A) (A) (A) (A) (A) (A) (A) (A) (A) (A)
                 (A) (A) (A) (A) (A) (A) (A) (A) (A) (A) (A) (A)
                 (A) (A) (A) (A) (A) (A) (A) (A) (A) (A) (A) (A)
                 (A) (A) (A) (A) (A) (A) (A) (A) (A) (A) (A) (A)
                 (A) (A) (A) (A) (A) (A) (A) (A)
 The electronic state is 1-A.
 Alpha  occ. eigenvalues --  -89.23044 -24.79062 -19.24543 -19.24417 -19.20570
 Alpha  occ. eigenvalues --  -19.20463 -14.40900 -10.30592 -10.29220 -10.29163
 Alpha  occ. eigenvalues --  -10.29127 -10.29100 -10.27810 -10.26706 -10.26368
 Alpha  occ. eigenvalues --  -10.26299 -10.24989 -10.23747 -10.23608 -10.23367
 Alpha  occ. eigenvalues --   -8.20898  -6.15861  -6.15465  -6.15395  -1.28295
 Alpha  occ. eigenvalues --   -1.12604  -1.12592  -1.09054  -1.04225  -0.99200
 Alpha  occ. eigenvalues --   -0.89966  -0.85760  -0.83436  -0.80584  -0.78664
 Alpha  occ. eigenvalues --   -0.75763  -0.72140  -0.69815  -0.67977  -0.65685
 Alpha  occ. eigenvalues --   -0.64271  -0.60213  -0.59462  -0.57383  -0.55017
 Alpha  occ. eigenvalues --   -0.54851  -0.53711  -0.51903  -0.51080  -0.50866
 Alpha  occ. eigenvalues --   -0.49154  -0.48003  -0.47261  -0.46800  -0.46002
 Alpha  occ. eigenvalues --   -0.45647  -0.44983  -0.43934  -0.43533  -0.43331
 Alpha  occ. eigenvalues --   -0.42753  -0.42071  -0.39649  -0.39043  -0.38292
 Alpha  occ. eigenvalues --   -0.36225  -0.36060  -0.34585  -0.34293  -0.33425
 Alpha  occ. eigenvalues --   -0.32458  -0.31964  -0.30303  -0.29642  -0.25903
 Alpha  occ. eigenvalues --   -0.23621
 Alpha virt. eigenvalues --   -0.07162  -0.04945  -0.01797   0.00056   0.01980
 Alpha virt. eigenvalues --    0.06988   0.07692   0.09480   0.09993   0.10295
 Alpha virt. eigenvalues --    0.11562   0.11576   0.12456   0.13239   0.14633
 Alpha virt. eigenvalues --    0.15024   0.15521   0.16553   0.16781   0.17617
 Alpha virt. eigenvalues --    0.18010   0.20000   0.20275   0.22152   0.23146
 Alpha virt. eigenvalues --    0.23974   0.24868   0.28395   0.29201   0.30704
 Alpha virt. eigenvalues --    0.31484   0.33118   0.34003   0.35713   0.36399
 Alpha virt. eigenvalues --    0.38062   0.39656   0.40955   0.44390   0.46180
 Alpha virt. eigenvalues --    0.48300   0.48692   0.50502   0.51837   0.52007
 Alpha virt. eigenvalues --    0.52863   0.53767   0.54780   0.55045   0.55773
 Alpha virt. eigenvalues --    0.56639   0.57791   0.57941   0.58730   0.59181
 Alpha virt. eigenvalues --    0.60051   0.60070   0.60313   0.60963   0.61765
 Alpha virt. eigenvalues --    0.62842   0.63804   0.64495   0.65332   0.66211
 Alpha virt. eigenvalues --    0.69943   0.71089   0.74037   0.76186   0.76989
 Alpha virt. eigenvalues --    0.77904   0.78792   0.79306   0.79726   0.80491
 Alpha virt. eigenvalues --    0.81534   0.81985   0.83545   0.83791   0.84076
 Alpha virt. eigenvalues --    0.85585   0.86140   0.86637   0.87369   0.87476
 Alpha virt. eigenvalues --    0.88506   0.89051   0.90476   0.90949   0.92153
 Alpha virt. eigenvalues --    0.93247   0.94448   0.94760   0.95750   1.00322
 Alpha virt. eigenvalues --    1.00753   1.02492   1.03255   1.03846   1.04128
 Alpha virt. eigenvalues --    1.05793   1.06699   1.07543   1.08084   1.09965
 Alpha virt. eigenvalues --    1.10262   1.10683   1.12722   1.13664   1.15923
 Alpha virt. eigenvalues --    1.17322   1.18197   1.21970   1.22288   1.25568
 Alpha virt. eigenvalues --    1.25626   1.26348   1.28835   1.30220   1.32168
 Alpha virt. eigenvalues --    1.33689   1.34980   1.36270   1.36755   1.37700
 Alpha virt. eigenvalues --    1.38866   1.41538   1.43254   1.43615   1.44535
 Alpha virt. eigenvalues --    1.45507   1.45946   1.47519   1.47620   1.49157
 Alpha virt. eigenvalues --    1.50575   1.52071   1.53431   1.61525   1.62123
 Alpha virt. eigenvalues --    1.66276   1.67822   1.71905   1.72982   1.74470
 Alpha virt. eigenvalues --    1.75005   1.75923   1.77683   1.78861   1.79294
 Alpha virt. eigenvalues --    1.79390   1.79718   1.80611   1.81219   1.81740
 Alpha virt. eigenvalues --    1.82604   1.83035   1.84748   1.85826   1.86301
 Alpha virt. eigenvalues --    1.88008   1.88363   1.89517   1.90177   1.90926
 Alpha virt. eigenvalues --    1.91117   1.96428   1.97152   1.98179   1.99574
 Alpha virt. eigenvalues --    2.01262   2.03370   2.04833   2.05292   2.07454
 Alpha virt. eigenvalues --    2.08087   2.09762   2.11396   2.12388   2.12769
 Alpha virt. eigenvalues --    2.14394   2.16198   2.17499   2.18586   2.21156
 Alpha virt. eigenvalues --    2.23677   2.25330   2.26596   2.26808   2.27542
 Alpha virt. eigenvalues --    2.28991   2.30600   2.30833   2.33449   2.36101
 Alpha virt. eigenvalues --    2.36454   2.38124   2.39775   2.42297   2.47239
 Alpha virt. eigenvalues --    2.51779   2.55226   2.58316   2.59199   2.60653
 Alpha virt. eigenvalues --    2.62363   2.62643   2.63823   2.64607   2.67090
 Alpha virt. eigenvalues --    2.67941   2.69333   2.72375   2.75292   2.78388
 Alpha virt. eigenvalues --    2.79535   2.82602   2.83937   2.84975   2.87684
 Alpha virt. eigenvalues --    2.94066   2.94387   2.98764   3.03486   3.12313
 Alpha virt. eigenvalues --    3.28384   3.30663   3.45051   3.78490   3.85294
 Alpha virt. eigenvalues --    3.96615   3.99697   4.05961   4.08344   4.10279
 Alpha virt. eigenvalues --    4.14410   4.16592   4.22990   4.25199   4.27801
 Alpha virt. eigenvalues --    4.30717   4.36146   4.41251   4.45260   4.51572
 Alpha virt. eigenvalues --    4.54757   4.66862   4.93685
          Condensed to atoms (all electrons):
               1          2          3          4          5          6
     1  F    9.150896   0.218137  -0.031461   0.000726  -0.000015  -0.000002
     2  S    0.218137  13.470095   0.197656  -0.027291   0.001128   0.000200
     3  C   -0.031461   0.197656   5.310546   0.462217  -0.041553  -0.034962
     4  C    0.000726  -0.027291   0.462217   4.996768   0.480342  -0.012122
     5  C   -0.000015   0.001128  -0.041553   0.480342   5.021745   0.511202
     6  C   -0.000002   0.000200  -0.034962  -0.012122   0.511202   4.900303
     7  C   -0.000000  -0.000005   0.000766   0.006991  -0.053374   0.343126
     8  C    0.000000   0.000000  -0.000014   0.000269  -0.010945  -0.042283
     9  C   -0.000000  -0.000000  -0.000000  -0.000005   0.000383   0.005229
    10  O    0.000000   0.000000   0.000000  -0.000000  -0.000003  -0.000063
    11  C   -0.000000  -0.000000  -0.000000   0.000000   0.000000   0.000003
    12  C    0.000000  -0.000000  -0.000000   0.000000   0.000000   0.000000
    13  O    0.000000   0.000000   0.000000   0.000000  -0.000000  -0.000000
    14  C    0.000000  -0.000000   0.000000   0.000000  -0.000001   0.000549
    15  C    0.000000  -0.000000  -0.000000   0.000002  -0.000134   0.005601
    16  C   -0.000000   0.000000   0.000014  -0.000184   0.005673  -0.044536
    17  C    0.000131   0.000325  -0.069499  -0.040004  -0.057370   0.442442
    18  N    0.003060  -0.020126   0.343823  -0.026017  -0.042531  -0.009374
    19  O   -0.035920   0.446133  -0.057412   0.003635   0.000434  -0.000007
    20  O   -0.035827   0.466452  -0.053541  -0.001773  -0.000083   0.000005
    21  H    0.000012   0.000191  -0.034792   0.359695  -0.029243   0.003330
    22  H    0.000000  -0.000037   0.005321  -0.042524   0.367256  -0.038278
    23  H    0.000000  -0.000000   0.000000  -0.000020   0.004270  -0.008367
    24  H    0.000000   0.000000   0.000000   0.000000   0.000000  -0.000000
    25  H    0.000000  -0.000000  -0.000000  -0.000000   0.000000  -0.000000
    26  H    0.000000   0.000000  -0.000000   0.000000   0.000000  -0.000000
    27  H    0.000000  -0.000000  -0.000000   0.000000   0.000000   0.000000
    28  H    0.000000   0.000000   0.000000  -0.000000   0.000001  -0.000139
    29  H   -0.000000  -0.000000   0.000002  -0.000005  -0.000023  -0.007895
    30  H    0.000002  -0.000184   0.006471   0.000198   0.004155  -0.062805
               7          8          9         10         11         12
     1  F   -0.000000   0.000000  -0.000000   0.000000  -0.000000   0.000000
     2  S   -0.000005   0.000000  -0.000000   0.000000  -0.000000  -0.000000
     3  C    0.000766  -0.000014  -0.000000   0.000000  -0.000000  -0.000000
     4  C    0.006991   0.000269  -0.000005  -0.000000   0.000000   0.000000
     5  C   -0.053374  -0.010945   0.000383  -0.000003   0.000000   0.000000
     6  C    0.343126  -0.042283   0.005229  -0.000063   0.000003   0.000000
     7  C    4.773790   0.508955  -0.012671   0.002522  -0.000078   0.000009
     8  C    0.508955   5.136892   0.509556  -0.052799   0.003292   0.000415
     9  C   -0.012671   0.509556   4.702530   0.249014  -0.035157  -0.020607
    10  O    0.002522  -0.052799   0.249014   8.259417   0.233069  -0.039939
    11  C   -0.000078   0.003292  -0.035157   0.233069   4.985651   0.328013
    12  C    0.000009   0.000415  -0.020607  -0.039939   0.328013   4.985788
    13  O   -0.000009   0.004252  -0.053921  -0.004459  -0.039207   0.232056
    14  C   -0.026595  -0.045927   0.412563  -0.055560  -0.020250  -0.034794
    15  C   -0.024103  -0.042014  -0.037493   0.003976   0.000480   0.003613
    16  C    0.527778  -0.060422  -0.035501   0.000176  -0.000001  -0.000143
    17  C   -0.031928   0.004667  -0.000124   0.000000  -0.000000  -0.000000
    18  N    0.005434  -0.000092   0.000000  -0.000000   0.000000  -0.000000
    19  O   -0.000000   0.000000   0.000000  -0.000000   0.000000   0.000000
    20  O   -0.000000  -0.000000  -0.000000   0.000000  -0.000000  -0.000000
    21  H   -0.000053  -0.000005  -0.000000   0.000000   0.000000  -0.000000
    22  H   -0.008500   0.005047   0.000064  -0.000005  -0.000000  -0.000000
    23  H   -0.037771   0.345746  -0.029382   0.000423  -0.000085   0.000026
    24  H    0.000007   0.000238  -0.001354  -0.041445   0.370680  -0.044456
    25  H    0.000001  -0.000130   0.003253  -0.031520   0.373150  -0.028936
    26  H   -0.000001   0.000018   0.000547   0.002785  -0.028939   0.372236
    27  H   -0.000005  -0.000297   0.002688  -0.002305  -0.043805   0.371247
    28  H    0.002706   0.000422   0.004670  -0.000047   0.000020  -0.000080
    29  H   -0.038098   0.004976   0.000347   0.000002  -0.000000   0.000003
    30  H   -0.001777  -0.000050  -0.000006   0.000000   0.000000   0.000000
              13         14         15         16         17         18
     1  F    0.000000   0.000000   0.000000  -0.000000   0.000131   0.003060
     2  S    0.000000  -0.000000  -0.000000   0.000000   0.000325  -0.020126
     3  C    0.000000   0.000000  -0.000000   0.000014  -0.069499   0.343823
     4  C    0.000000   0.000000   0.000002  -0.000184  -0.040004  -0.026017
     5  C   -0.000000  -0.000001  -0.000134   0.005673  -0.057370  -0.042531
     6  C   -0.000000   0.000549   0.005601  -0.044536   0.442442  -0.009374
     7  C   -0.000009  -0.026595  -0.024103   0.527778  -0.031928   0.005434
     8  C    0.004252  -0.045927  -0.042014  -0.060422   0.004667  -0.000092
     9  C   -0.053921   0.412563  -0.037493  -0.035501  -0.000124   0.000000
    10  O   -0.004459  -0.055560   0.003976   0.000176   0.000000  -0.000000
    11  C   -0.039207  -0.020250   0.000480  -0.000001  -0.000000   0.000000
    12  C    0.232056  -0.034794   0.003613  -0.000143  -0.000000  -0.000000
    13  O    8.255603   0.252867  -0.057749   0.003519   0.000000   0.000000
    14  C    0.252867   4.688424   0.533486  -0.027579   0.000014   0.000000
    15  C   -0.057749   0.533486   5.016636   0.506829   0.000200  -0.000001
    16  C    0.003519  -0.027579   0.506829   5.007680  -0.010299   0.000083
    17  C    0.000000   0.000014   0.000200  -0.010299   4.944431   0.430959
    18  N    0.000000   0.000000  -0.000001   0.000083   0.430959   6.796199
    19  O    0.000000  -0.000000  -0.000000   0.000000  -0.000080   0.000917
    20  O    0.000000   0.000000   0.000000   0.000000  -0.000144  -0.000684
    21  H    0.000000   0.000000  -0.000000   0.000001   0.000190   0.003644
    22  H   -0.000000  -0.000002  -0.000005  -0.000007   0.005080  -0.000080
    23  H   -0.000050   0.005140   0.000073   0.005025   0.000045  -0.000004
    24  H   -0.002361   0.002795  -0.000335  -0.000010   0.000000   0.000000
    25  H    0.002724   0.000537   0.000017  -0.000001   0.000000  -0.000000
    26  H   -0.031640   0.003068  -0.000129   0.000004  -0.000000   0.000000
    27  H   -0.041168  -0.001437   0.000119  -0.000003   0.000000  -0.000000
    28  H   -0.000405  -0.031170   0.355008  -0.032142  -0.000002  -0.000000
    29  H   -0.000052   0.003635  -0.035137   0.361064   0.003995  -0.000016
    30  H   -0.000000  -0.000003  -0.000047   0.004593   0.381469  -0.050183
              19         20         21         22         23         24
     1  F   -0.035920  -0.035827   0.000012   0.000000   0.000000   0.000000
     2  S    0.446133   0.466452   0.000191  -0.000037  -0.000000   0.000000
     3  C   -0.057412  -0.053541  -0.034792   0.005321   0.000000   0.000000
     4  C    0.003635  -0.001773   0.359695  -0.042524  -0.000020   0.000000
     5  C    0.000434  -0.000083  -0.029243   0.367256   0.004270   0.000000
     6  C   -0.000007   0.000005   0.003330  -0.038278  -0.008367  -0.000000
     7  C   -0.000000  -0.000000  -0.000053  -0.008500  -0.037771   0.000007
     8  C    0.000000  -0.000000  -0.000005   0.005047   0.345746   0.000238
     9  C    0.000000  -0.000000  -0.000000   0.000064  -0.029382  -0.001354
    10  O   -0.000000   0.000000   0.000000  -0.000005   0.000423  -0.041445
    11  C    0.000000  -0.000000   0.000000  -0.000000  -0.000085   0.370680
    12  C    0.000000  -0.000000  -0.000000  -0.000000   0.000026  -0.044456
    13  O    0.000000   0.000000   0.000000  -0.000000  -0.000050  -0.002361
    14  C   -0.000000   0.000000   0.000000  -0.000002   0.005140   0.002795
    15  C   -0.000000   0.000000  -0.000000  -0.000005   0.000073  -0.000335
    16  C    0.000000   0.000000   0.000001  -0.000007   0.005025  -0.000010
    17  C   -0.000080  -0.000144   0.000190   0.005080   0.000045   0.000000
    18  N    0.000917  -0.000684   0.003644  -0.000080  -0.000004   0.000000
    19  O    8.174242  -0.042269   0.003431   0.000002   0.000000  -0.000000
    20  O   -0.042269   8.142553  -0.000223   0.000000  -0.000000  -0.000000
    21  H    0.003431  -0.000223   0.472098  -0.004638   0.000004  -0.000000
    22  H    0.000002   0.000000  -0.004638   0.507964   0.002306   0.000000
    23  H    0.000000  -0.000000   0.000004   0.002306   0.524977   0.000016
    24  H   -0.000000  -0.000000  -0.000000   0.000000   0.000016   0.550368
    25  H    0.000000   0.000000   0.000000   0.000000  -0.000020  -0.033984
    26  H    0.000000   0.000000  -0.000000   0.000000  -0.000000  -0.000934
    27  H    0.000000  -0.000000  -0.000000   0.000000  -0.000000   0.004878
    28  H    0.000000  -0.000000   0.000000   0.000000   0.000014  -0.000000
    29  H   -0.000000   0.000000   0.000000   0.000000  -0.000138  -0.000000
    30  H    0.000000   0.000001   0.000021  -0.000130   0.000004   0.000000
              25         26         27         28         29         30
     1  F    0.000000   0.000000   0.000000   0.000000  -0.000000   0.000002
     2  S   -0.000000   0.000000  -0.000000   0.000000  -0.000000  -0.000184
     3  C   -0.000000  -0.000000  -0.000000   0.000000   0.000002   0.006471
     4  C   -0.000000   0.000000   0.000000  -0.000000  -0.000005   0.000198
     5  C    0.000000   0.000000   0.000000   0.000001  -0.000023   0.004155
     6  C   -0.000000  -0.000000   0.000000  -0.000139  -0.007895  -0.062805
     7  C    0.000001  -0.000001  -0.000005   0.002706  -0.038098  -0.001777
     8  C   -0.000130   0.000018  -0.000297   0.000422   0.004976  -0.000050
     9  C    0.003253   0.000547   0.002688   0.004670   0.000347  -0.000006
    10  O   -0.031520   0.002785  -0.002305  -0.000047   0.000002   0.000000
    11  C    0.373150  -0.028939  -0.043805   0.000020  -0.000000   0.000000
    12  C   -0.028936   0.372236   0.371247  -0.000080   0.000003   0.000000
    13  O    0.002724  -0.031640  -0.041168  -0.000405  -0.000052  -0.000000
    14  C    0.000537   0.003068  -0.001437  -0.031170   0.003635  -0.000003
    15  C    0.000017  -0.000129   0.000119   0.355008  -0.035137  -0.000047
    16  C   -0.000001   0.000004  -0.000003  -0.032142   0.361064   0.004593
    17  C    0.000000  -0.000000   0.000000  -0.000002   0.003995   0.381469
    18  N   -0.000000   0.000000  -0.000000  -0.000000  -0.000016  -0.050183
    19  O    0.000000   0.000000   0.000000   0.000000  -0.000000   0.000000
    20  O    0.000000   0.000000  -0.000000  -0.000000   0.000000   0.000001
    21  H    0.000000  -0.000000  -0.000000   0.000000   0.000000   0.000021
    22  H    0.000000   0.000000   0.000000   0.000000   0.000000  -0.000130
    23  H   -0.000020  -0.000000  -0.000000   0.000014  -0.000138   0.000004
    24  H   -0.033984  -0.000934   0.004878  -0.000000  -0.000000   0.000000
    25  H    0.519700  -0.000752  -0.001070  -0.000000   0.000000  -0.000000
    26  H   -0.000752   0.521357  -0.034149  -0.000017  -0.000000  -0.000000
    27  H   -0.001070  -0.034149   0.548247   0.000016   0.000000  -0.000000
    28  H   -0.000000  -0.000017   0.000016   0.511989  -0.004623   0.000003
    29  H    0.000000  -0.000000   0.000000  -0.004623   0.531443   0.002263
    30  H   -0.000000  -0.000000  -0.000000   0.000003   0.002263   0.517103
 Mulliken charges:
               1
     1  F   -0.269738
     2  S    1.247327
     3  C   -0.003582
     4  C   -0.160897
     5  C   -0.161312
     6  C    0.048843
     7  C    0.062883
     8  C   -0.269765
     9  C    0.335377
    10  O   -0.523239
    11  C   -0.126835
    12  C   -0.124451
    13  O   -0.519999
    14  C    0.340242
    15  C   -0.228891
    16  C   -0.211612
    17  C   -0.004496
    18  N   -0.435011
    19  O   -0.493105
    20  O   -0.474468
    21  H    0.226336
    22  H    0.201166
    23  H    0.187770
    24  H    0.195897
    25  H    0.197031
    26  H    0.196548
    27  H    0.197042
    28  H    0.193778
    29  H    0.178258
    30  H    0.198902
 Sum of Mulliken charges =  -0.00000
 Mulliken charges with hydrogens summed into heavy atoms:
               1
     1  F   -0.269738
     2  S    1.247327
     3  C   -0.003582
     4  C    0.065439
     5  C    0.039854
     6  C    0.048843
     7  C    0.062883
     8  C   -0.081995
     9  C    0.335377
    10  O   -0.523239
    11  C    0.266093
    12  C    0.269140
    13  O   -0.519999
    14  C    0.340242
    15  C   -0.035113
    16  C   -0.033354
    17  C    0.194406
    18  N   -0.435011
    19  O   -0.493105
    20  O   -0.474468
 Electronic spatial extent (au):  <R**2>=           9739.9375
 Charge=             -0.0000 electrons
 Dipole moment (field-independent basis, Debye):
    X=              9.5154    Y=             -1.0027    Z=             -0.2297  Tot=              9.5708
 Quadrupole moment (field-independent basis, Debye-Ang):
   XX=           -127.1486   YY=           -115.5425   ZZ=           -121.5146
   XY=             -6.4984   XZ=              0.6288   YZ=              3.5274
 Traceless Quadrupole moment (field-independent basis, Debye-Ang):
   XX=             -5.7467   YY=              5.8594   ZZ=             -0.1127
   XY=             -6.4984   XZ=              0.6288   YZ=              3.5274
 Octapole moment (field-independent basis, Debye-Ang**2):
  XXX=            367.5088  YYY=              8.5854  ZZZ=             14.4222  XYY=              6.9164
  XXY=            -41.4491  XXZ=             36.5012  XZZ=             -3.1580  YZZ=             -5.4609
  YYZ=             -7.1564  XYZ=             -9.7983
 Hexadecapole moment (field-independent basis, Debye-Ang**3):
 XXXX=         -10398.9056 YYYY=           -879.6567 ZZZZ=           -298.1101 XXXY=           -487.3052
 XXXZ=            -37.4085 YYYX=            -14.4358 YYYZ=              7.1869 ZZZX=            -36.5438
 ZZZY=              7.9925 XXYY=          -2014.2409 XXZZ=          -1893.1840 YYZZ=           -204.1914
 XXYZ=             55.2309 YYXZ=             -1.6813 ZZXY=             -7.4361
 N-N= 1.604443511020D+03 E-N=-6.386751461859D+03  KE= 1.344405376845D+03
 No NMR shielding tensors so no spin-rotation constants.
 Leave Link  601 at Fri Oct  4 16:26:25 2024, MaxMem=  2097152000 cpu:               2.4 elap:               0.2
 (Enter /uufs/chpc.utah.edu/sys/installdir/gaussian16/C01/AVX/g16/l701.exe)
 ... and contract with generalized density number  0.
 Compute integral first derivatives.
 R6APFD:  NTU= -4 IXU= 1 FactS= 1.050
 R6Disp: Adding Petersson-Frisch dispersion energy 1st derivatives to the gradient.
 Leave Link  701 at Fri Oct  4 16:26:26 2024, MaxMem=  2097152000 cpu:               2.9 elap:               0.2
 (Enter /uufs/chpc.utah.edu/sys/installdir/gaussian16/C01/AVX/g16/l702.exe)
 L702 exits ... SP integral derivatives will be done elsewhere.
 Leave Link  702 at Fri Oct  4 16:26:26 2024, MaxMem=  2097152000 cpu:               0.6 elap:               0.1
 (Enter /uufs/chpc.utah.edu/sys/installdir/gaussian16/C01/AVX/g16/l703.exe)
 Integral derivatives from FoFJK, PRISM(SPDF).
 Compute integral first derivatives, UseDBF=F ICtDFT=           0.
 Calling FoFJK, ICntrl=      2127 FMM=F ISym2X=0 I1Cent= 0 IOpClX= 0 NMat=1 NMatS=1 NMatT=0.
 FoFJK:  IHMeth= 1 ICntrl=    2127 DoSepK=F KAlg= 0 I1Cent=           0 FoldK=F
 IRaf=         0 NMat=       1 IRICut=       1 DoRegI=T DoRafI=F ISym2E= 0 IDoP0=0 IntGTp=1.
 FoFCou: FMM=F IPFlag=           0 FMFlag=      100000 FMFlg1=         800
         NFxFlg=           0 DoJE=F BraDBF=F KetDBF=F FulRan=T
         wScrn=  0.000000 ICntrl=      2127 IOpCl=  0 I1Cent=           0 NGrid=           0
         NMat0=    1 NMatS0=      1 NMatT0=    0 NMatD0=    1 NMtDS0=    0 NMtDT0=    0
 Symmetry not used in FoFCou.
 Leave Link  703 at Fri Oct  4 16:26:33 2024, MaxMem=  2097152000 cpu:              95.4 elap:               6.0
 (Enter /uufs/chpc.utah.edu/sys/installdir/gaussian16/C01/AVX/g16/l716.exe)
 Dipole        = 3.74363067D+00-3.94510688D-01-9.03613001D-02
 ***** Axes restored to original set *****
 -------------------------------------------------------------------
 Center     Atomic                   Forces (Hartrees/Bohr)
 Number     Number              X              Y              Z
 -------------------------------------------------------------------
      1        9           0.005091168    0.002778899   -0.012162924
      2       16          -0.027129740   -0.012087515    0.020580391
      3        6           0.037412972    0.024360056   -0.018895193
      4        6          -0.002290690   -0.004964467   -0.002658595
      5        6           0.000067422    0.000685970    0.001056972
      6        6          -0.004737696   -0.006715798    0.001480198
      7        6           0.002166144   -0.002016096   -0.007368614
      8        6          -0.001989724    0.007101772    0.002184021
      9        6          -0.001766558   -0.014003108    0.015661202
     10        8           0.000899377    0.006193281   -0.009550691
     11        6           0.003292718   -0.003033098    0.005233175
     12        6          -0.002144344    0.005219494   -0.001189743
     13        8          -0.000596081   -0.011596204    0.003925243
     14        6           0.001064118    0.011409994   -0.014869357
     15        6          -0.001174100    0.002495648    0.018636030
     16        6           0.001516999    0.001439835   -0.006294241
     17        6           0.003505846    0.010201624    0.023037454
     18        7          -0.017697083   -0.021377617   -0.014079057
     19        8          -0.000843519    0.005610372   -0.003992499
     20        8           0.005630607   -0.001387380   -0.000721841
     21        1           0.000619067    0.000357309    0.000610249
     22        1           0.000803327    0.001853507   -0.001156921
     23        1           0.000252555    0.000084455   -0.001402848
     24        1           0.000341732    0.002720413   -0.002141250
     25        1           0.000956714   -0.000076428    0.003240831
     26        1          -0.000962471    0.003347151    0.000348507
     27        1          -0.001139406   -0.002644064    0.001690750
     28        1          -0.000250677   -0.002420048   -0.001287866
     29        1          -0.000848435   -0.001775664    0.001726337
     30        1          -0.000050240   -0.001762294   -0.001639720
 -------------------------------------------------------------------
 Cartesian Forces:  Max     0.037412972 RMS     0.009066614
 Leave Link  716 at Fri Oct  4 16:26:33 2024, MaxMem=  2097152000 cpu:               0.6 elap:               0.1
 (Enter /uufs/chpc.utah.edu/sys/installdir/gaussian16/C01/AVX/g16/l103.exe)

 GradGradGradGradGradGradGradGradGradGradGradGradGradGradGradGradGradGrad
 Berny optimization.
 FormGI is forming the generalized inverse of G from B-inverse, IUseBI=4.
 Internal  Forces:  Max     0.032251231 RMS     0.004986671
 Search for a local minimum.
 Step number   1 out of a maximum of  169
 All quantities printed in internal units (Hartrees-Bohrs-Radians)
 RMS Force = .49867D-02 SwitMx=.10000D-02 MixMth= 1
 Mixed Optimization -- RFO/linear search
 Second derivative matrix not updated -- first step.
 ITU=  0
     Eigenvalues ---    0.00666   0.01020   0.01023   0.01597   0.01675
     Eigenvalues ---    0.01720   0.01778   0.01992   0.02022   0.02047
     Eigenvalues ---    0.02051   0.02077   0.02080   0.02092   0.02132
     Eigenvalues ---    0.02137   0.02154   0.02173   0.02190   0.02234
     Eigenvalues ---    0.02288   0.04774   0.05379   0.05800   0.06502
     Eigenvalues ---    0.10473   0.11181   0.11534   0.11594   0.12571
     Eigenvalues ---    0.12788   0.15997   0.15997   0.15999   0.16000
     Eigenvalues ---    0.16000   0.16000   0.19835   0.20558   0.22323
     Eigenvalues ---    0.22473   0.23385   0.23506   0.24531   0.24611
     Eigenvalues ---    0.24945   0.24977   0.24990   0.24999   0.25000
     Eigenvalues ---    0.25000   0.25000   0.27963   0.29268   0.33863
     Eigenvalues ---    0.33985   0.34300   0.34372   0.34480   0.34982
     Eigenvalues ---    0.34999   0.35031   0.35084   0.35154   0.35324
     Eigenvalues ---    0.38349   0.39303   0.41005   0.41387   0.42334
     Eigenvalues ---    0.43075   0.44463   0.44785   0.45748   0.45798
[...]
   34      -1.8795       -3.1693       1.2898        -3.1144       1.2348
   35     -31.7178      -43.2643      11.5465       -43.9396      12.2218
   58     203.2859       -0.0050     203.2909        -0.0083     203.2942
 Sum       80.5309     -181.1595     261.6904      -180.5590     261.0899

 Contributions to Isotropic shielding for atom   17 (    50.6572 ppm):
                         Standard Origin              Atomic Origin
 NLMO      Total    Paramagnetic  Diamagnetic   Paramagnetic  Diamagnetic
    1       1.0231       -0.3884       1.4115        -0.1893       1.2124
    4       0.8319       -0.4382       1.2701        -0.2986       1.1305
    5       0.2594       -1.3406       1.6000        -0.9756       1.2349
    6       4.7365        1.2465       3.4900         1.6627       3.0739
    7       1.3169       -1.1413       2.4582        -0.3660       1.6829
    8      -0.1840       -0.6201       0.4362        -1.4161       1.2321
   10      -1.9882       -1.9892       0.0010        -2.3393       0.3511
   11      -1.1148       -3.9854       2.8706        -4.6727       3.5579
   13      -1.4278       -1.8508       0.4229        -1.9578       0.5300
   14     -50.5841      -63.4729      12.8888       -59.7240       9.1398
   16      -0.4091       -1.1188       0.7097        -1.3005       0.8914
   22       0.1981       -0.4843       0.6823        -0.8073       1.0053
   36     -48.8683      -51.4171       2.5489       -54.2104       5.3421
   37       2.3617      -12.0361      14.3978       -11.8289      14.1906
   38     -44.9750      -55.6496      10.6746       -57.0823      12.1072
   59     203.2513        0.0005     203.2508        -0.0080     203.2593
   70      -8.2656       -9.3590       1.0934        -9.4311       1.1654
 Sum       56.1618     -204.0450     260.2068      -204.9451     261.1069

 Contributions to Isotropic shielding for atom   18 (   -49.6650 ppm):
                         Standard Origin              Atomic Origin
 NLMO      Total    Paramagnetic  Diamagnetic   Paramagnetic  Diamagnetic
    1       2.4927       -0.2369       2.7295         0.8432       1.6495
    2      -1.8503       -1.7965      -0.0539        -2.7696       0.9193
    3      -0.3638       -1.6938       1.3300        -0.9566       0.5928
    4       1.8550       -0.7625       2.6175         0.2207       1.6343
    5       0.5175       -1.5475       2.0650        -0.2532       0.7707
    6      -0.4909       -5.1471       4.6562        -3.4793       2.9884
    7     -51.6160      -69.7772      18.1611       -63.3535      11.7374
    8       0.1189       -0.3725       0.4914        -1.2151       1.3339
    9      -0.7126       -0.9448       0.2322        -1.2469       0.5343
   10      -0.3495       -0.0979      -0.2516        -1.3387       0.9892
   11       6.1451        4.6278       1.5173         2.8094       3.3357
   14      -6.0275       -6.5440       0.5165        -6.5573       0.5298
   36     -52.0767      -75.9032      23.8265       -64.2449      12.1682
   37      -7.1027      -26.3074      19.2047       -26.8451      19.7424
   38      -3.1147       -4.4299       1.3152        -4.2132       1.0985
   60     239.6637        0.0148     239.6489         0.0392     239.6245
   70    -169.3319     -181.1173      11.7854      -199.4328      30.1009
   72      -1.8762       -2.7564       0.8802        -2.2994       0.4232
   74      -0.7389        0.3965      -1.1354        -0.1082      -0.6307
   75      -0.9090       -1.6983       0.7893        -1.1522       0.2432
   76      -0.1790       -1.0429       0.8639        -0.8997       0.7207
 Sum      -45.9469     -377.1369     331.1899      -376.4532     330.5062

 Contributions to Isotropic shielding for atom   19 (   122.2534 ppm):
                         Standard Origin              Atomic Origin
 NLMO      Total    Paramagnetic  Diamagnetic   Paramagnetic  Diamagnetic
    1     -13.5665      -12.5472      -1.0192       -14.7819       1.2155
    2      -0.1887       -0.9552       0.7665        -1.4813       1.2926
    3     -65.5382      -77.8663      12.3281       -76.8146      11.2764
    4     -19.5216      -19.0713      -0.4504       -20.7450       1.2234
    5      -1.5515        0.0008      -1.5522        -2.5871       1.0356
    6       0.6934        1.1987      -0.5053        -0.9558       1.6493
    7       2.2067        2.7116      -0.5050         2.0441       0.1625
   61     275.6326        0.0167     275.6159         0.0170     275.6156
   64      -9.6911      -10.1467       0.4556       -10.5228       0.8318
   70       1.3887        0.7991       0.5896         1.6861      -0.2974
   71      10.4056      -22.1922      32.5978       -23.0170      33.4225
   72      -7.9822      -40.9783      32.9961       -43.4538      35.4716
   73      -7.1742      -40.8760      33.7019       -41.1828      34.0087
   74      -0.2610       -2.0224       1.7614        -0.4131       0.1521
   75     -38.3138      -42.1552       3.8414       -40.5837       2.2698
   76      -6.9058       -6.0679      -0.8379        -7.7050       0.7992
 Sum      119.6326     -270.1518     389.7844      -280.4967     400.1293

 Contributions to Isotropic shielding for atom   20 (   110.1185 ppm):
                         Standard Origin              Atomic Origin
 NLMO      Total    Paramagnetic  Diamagnetic   Paramagnetic  Diamagnetic
    1     -16.8948      -15.4877      -1.4071       -18.1118       1.2169
    2      -0.3506       -0.9521       0.6015        -1.6356       1.2850
    3     -22.0171      -21.4551      -0.5621       -23.1889       1.1718
    4     -61.0385      -72.5391      11.5006       -71.8079      10.7694
    5       1.1747        1.4735      -0.2987         0.9149       0.2598
    6      -0.9664       -0.8577      -0.1087        -1.7969       0.8305
    7      -0.9338        0.5163      -1.4501        -2.1992       1.2653
   11       0.0049       -0.0425       0.0473        -1.0888       1.0937
   62     275.6613        0.0141     275.6472         0.0137     275.6476
   63       0.7677       -0.3095       1.0772         0.6387       0.1291
   64      -8.9731       -9.4157       0.4426        -9.7937       0.8206
   65      -0.6431       -1.0513       0.4082        -1.1934       0.5503
   70       2.0379        1.6592       0.3787         2.7992      -0.7614
   71       0.0101       -1.8521       1.8622        -0.1509       0.1610
   72     -21.8656      -24.5009       2.6353       -24.0244       2.1588
   73      -9.9907      -10.1121       0.1214       -11.1276       1.1368
   74      -0.4963      -32.8937      32.3974       -33.7839      33.2876
   75     -24.7698      -57.5187      32.7490       -60.5284      35.7586
   76      -1.7978      -34.2260      32.4281       -35.3679      33.5701
 Sum      108.9189     -279.5511     388.4699      -291.4327     400.3516

 Contributions to Isotropic shielding for atom   21 (    24.2124 ppm):
                         Standard Origin              Atomic Origin
 NLMO      Total    Paramagnetic  Diamagnetic   Paramagnetic  Diamagnetic
    1       0.9002       -0.2871       1.1873        -0.0110       0.9111
    2       0.0927        0.2636      -0.1709        -1.4986       1.5913
    3       2.8148       -0.6707       3.4855         1.0467       1.7682
    5      -2.8093       -0.9804      -1.8289        -2.9336       0.1242
    6       0.1073       -0.2647       0.3720        -3.5207       3.6280
    8      -1.6386       -2.4824       0.8438        -2.1942       0.5556
    9      26.3713        3.2026      23.1687         3.5607      22.8106
   11       1.3631        0.5713       0.7918         0.6325       0.7307
   12      -0.2670       -0.1845      -0.0825        -1.2668       0.9999
   36      -0.1166       -0.1266       0.0101        -1.0278       0.9112
   37       0.8994       -0.0606       0.9599        -0.4805       1.3799
   46       1.0538        0.6743       0.3795         1.0738      -0.0200
   71      -1.5006        0.5452      -2.0458        -0.4437      -1.0569
   72      -1.0782       -2.2838       1.2056        -0.8257      -0.2525
   73      -0.3072       -1.9332       1.6260        -1.2731       0.9659
 Sum       25.8852       -4.0171      29.9022        -9.1621      35.0473

 Contributions to Isotropic shielding for atom   22 (    24.3458 ppm):
                         Standard Origin              Atomic Origin
 NLMO      Total    Paramagnetic  Diamagnetic   Paramagnetic  Diamagnetic
    3       0.7695       -0.2204       0.9900        -0.2680       1.0375
    8      -2.3222       -1.5972      -0.7250        -3.2160       0.8939
    9      -0.2429       -1.1421       0.8992        -1.3097       1.0668
   10      -1.2107       -2.6951       1.4844        -2.2691       1.0584
   11       1.5310       -0.8843       2.4153        -1.7193       3.2503
   12      26.9323        3.0945      23.8378         3.3866      23.5457
   13      -0.2946       -0.2736      -0.0209        -1.2071       0.9126
   15       0.0341       -0.2784       0.3125        -0.9960       1.0301
   16       0.1866       -0.5465       0.7331        -1.3414       1.5279
   37       0.5412        0.0020       0.5391        -0.7639       1.3051
 Sum       25.9244       -4.5410      30.4655        -9.7040      35.6284

 Contributions to Isotropic shielding for atom   23 (    25.1968 ppm):
                         Standard Origin              Atomic Origin
 NLMO      Total    Paramagnetic  Diamagnetic   Paramagnetic  Diamagnetic
   10      -0.0249       -0.0395       0.0146        -1.0697       1.0448
   11      -0.2618       -0.6096       0.3478        -1.6017       1.3399
   13      -0.2314       -0.2183      -0.0131        -1.0861       0.8547
   15      -0.6076       -2.6668       2.0592        -1.8129       1.2053
   16       2.3517       -0.8879       3.2396        -1.1605       3.5122
   18      -1.3655       -1.0442      -0.3213        -2.8267       1.4612
   19      26.6815        3.0319      23.6496         2.9703      23.7112
   20       0.4117       -1.3653       1.7770        -1.0609       1.4727
   33       0.6712        0.0355       0.6357        -0.8403       1.5115
   66      -1.3586       -0.1506      -1.2080        -0.5078      -0.8509
 Sum       26.2662       -3.9150      30.1811        -8.9964      35.2626

 Contributions to Isotropic shielding for atom   24 (    28.0650 ppm):
                         Standard Origin              Atomic Origin
 NLMO      Total    Paramagnetic  Diamagnetic   Paramagnetic  Diamagnetic
   20      -0.8414        0.7474      -1.5889        -2.2910       1.4495
   21      -1.2335        0.3944      -1.6279        -2.0619       0.8283
   22      -1.2763       -0.2971      -0.9791        -2.2990       1.0227
   23       1.2762       -1.7123       2.9884         1.1113       0.1649
   24       0.2411        1.2854      -1.0443        -0.1792       0.4203
   25      27.3742        2.9969      24.3773         3.7054      23.6688
   26       0.4535        2.4757      -2.0222        -1.3524       1.8059
   30      -0.0332        0.1426      -0.1758        -1.2561       1.2229
   66       1.7752       -0.1726       1.9478         2.0583      -0.2831
   67      -1.0204       -1.0661       0.0458        -1.4453       0.4249
 Sum       26.7154        4.7944      21.9210        -4.0098      30.7252

 Contributions to Isotropic shielding for atom   25 (    28.1075 ppm):
                         Standard Origin              Atomic Origin
 NLMO      Total    Paramagnetic  Diamagnetic   Paramagnetic  Diamagnetic
   20      -0.5359        0.0747      -0.6106        -1.2823       0.7464
   21      -1.0174        0.1227      -1.1401        -1.7070       0.6896
   22      -0.8856       -0.1769      -0.7086        -1.8599       0.9743
   23      -0.7886       -0.3213      -0.4672        -1.7764       0.9878
   24      -2.0931        0.8201      -2.9133        -2.5731       0.4800
   25       0.2274        0.4632      -0.2358        -1.3332       1.5606
   26      27.0243        1.8940      25.1303         3.3673      23.6570
   30      -0.0883        0.1234      -0.2118        -1.1440       1.0557
   53       1.2737        0.7865       0.4872         1.3178      -0.0441
   66       2.0569       -0.4348       2.4917         2.5746      -0.5177
   67       1.2348        0.0729       1.1620         1.0352       0.1996
 Sum       26.4082        3.4245      22.9838        -3.3810      29.7892

 Contributions to Isotropic shielding for atom   26 (    28.1066 ppm):
                         Standard Origin              Atomic Origin
 NLMO      Total    Paramagnetic  Diamagnetic   Paramagnetic  Diamagnetic
   20      -0.5863        0.3963      -0.9826        -1.6282       1.0419
   21      -0.9727       -0.0024      -0.9703        -1.6777       0.7050
   22      -0.7646       -0.0097      -0.7549        -1.7029       0.9384
   24      -2.4476       -0.9851      -1.4626        -2.9276       0.4800
   27      -2.1685        0.9519      -3.1203        -3.1543       0.9858
   28      27.1748        1.5052      25.6696         3.5183      23.6565
   29       0.5227        0.3886       0.1340        -1.0465       1.5692
   54       1.8980        1.2336       0.6644         1.9418      -0.0438
   68       2.0694       -0.8640       2.9334         2.5820      -0.5125
   69       1.1080        0.0362       1.0718         0.9057       0.2023
 Sum       25.8331        2.6505      23.1826        -3.1896      29.0227

 Contributions to Isotropic shielding for atom   27 (    28.0689 ppm):
                         Standard Origin              Atomic Origin
 NLMO      Total    Paramagnetic  Diamagnetic   Paramagnetic  Diamagnetic
   20      -0.6920        0.5632      -1.2553        -1.9002       1.2082
   21      -1.1672        0.3273      -1.4945        -2.0087       0.8415
   22      -1.1127       -0.0830      -1.0297        -2.1231       1.0104
   24       1.4439       -0.3736       1.8175         1.0184       0.4255
   27       0.8928       -1.1159       2.0087         0.7148       0.1780
   28      -0.0669        2.9290      -2.9959        -1.8702       1.8033
   29      27.0077        3.0260      23.9817         3.3577      23.6500
   30       0.1283        0.3095      -0.1811        -1.3283       1.4566
   66       0.7010        0.0424       0.6587         1.0858      -0.3847
   68       1.3211       -0.3864       1.7075         1.6003      -0.2792
   69      -0.9902       -1.4216       0.4314        -1.4207       0.4305
 Sum       27.4658        3.8169      23.6489        -2.8741      30.3399

 Contributions to Isotropic shielding for atom   28 (    25.1568 ppm):
                         Standard Origin              Atomic Origin
 NLMO      Total    Paramagnetic  Diamagnetic   Paramagnetic  Diamagnetic
   16       0.2645        0.5105      -0.2460        -1.1060       1.3704
   22       0.9632       -0.1362       1.0994         0.5663       0.3969
   30      -0.5051       -0.5052       0.0001        -1.9394       1.4343
   31      -2.6503       -0.4129      -2.2374        -3.7379       1.0876
   32      -1.6305       -1.9445       0.3139        -2.3042       0.6737
   33       0.8802        0.1409       0.7393        -2.7651       3.6453
   34      27.1315        3.2043      23.9272         3.4919      23.6396
   35      -0.2524        0.2377      -0.4901        -1.3193       1.0669
   57       1.4639        1.0106       0.4533         1.4946      -0.0307
 Sum       25.6649        2.1051      23.5598        -7.6190      33.2840

 Contributions to Isotropic shielding for atom   29 (    25.0260 ppm):
                         Standard Origin              Atomic Origin
 NLMO      Total    Paramagnetic  Diamagnetic   Paramagnetic  Diamagnetic
    6       0.5025       -0.0242       0.5267        -0.5739       1.0764
   13      -0.3956       -0.1309      -0.2648        -1.2753       0.8797
   14      -0.0566        0.0771      -0.1336        -1.0998       1.0432
   17      -0.7204       -3.0052       2.2848        -1.6994       0.9790
   22       1.6821       -0.2647       1.9468         0.2872       1.3949
   32      -2.4041       -1.1764      -1.2277        -3.2807       0.8765
   33       0.3314       -1.3187       1.6501        -3.0627       3.3942
   34      -0.2791       -1.4297       1.1507        -1.3280       1.0490
   35      26.9994        3.0120      23.9875         3.1351      23.8643
 Sum       25.6597       -4.2607      29.9204        -8.8975      34.5572

 Contributions to Isotropic shielding for atom   30 (    23.3041 ppm):
                         Standard Origin              Atomic Origin
 NLMO      Total    Paramagnetic  Diamagnetic   Paramagnetic  Diamagnetic
    1       0.7744       -0.2109       0.9852        -0.3147       1.0891
    4       0.6892       -0.2444       0.9336        -0.3395       1.0287
    6       1.0711       -0.3262       1.3974        -0.3852       1.4564
   13      -0.3686       -0.1769      -0.1916        -1.2767       0.9081
   14      -1.7299       -2.9597       1.2299        -2.7793       1.0494
   22       0.6379       -0.1058       0.7437        -0.4356       1.0735
   36      -2.3192       -1.2201      -1.0991        -3.4131       1.0939
   37       0.3946       -1.0999       1.4945        -3.0541       3.4487
   38      27.4965        3.6740      23.8225         4.0489      23.4475
   70      -1.6405       -1.7096       0.0690        -1.4441      -0.1964
 Sum       25.0055       -4.3796      29.3850        -9.3934      34.3988
 
 Leave Link  607 at Fri Oct  4 16:38:33 2024, MaxMem=  2097152000 cpu:             110.1 elap:              14.3
 (Enter /uufs/chpc.utah.edu/sys/installdir/gaussian16/C01/AVX/g16/l9999.exe)
 Unable to Open any file for archive entry.
 1\1\GINC-NOTCH132\SP\RAPFD\6-31G(d)\C13H10F1N1O4S1\U1318517\04-Oct-202
 4\0\\#p apfd/6-31G* volume NMR pop=NPA geom=check guess=read\\ID-4004\
 \0,1\F,0,5.2757066009,-0.36243695,0.3270792687\S,0,3.7432707599,-0.028
 5473754,-0.0199327872\C,0,3.7916479052,-0.318179603,-1.7848549272\C,0,
 3.0827671728,-1.394979433,-2.3015610821\C,0,3.1171698729,-1.5587969486
 ,-3.6817386001\C,0,3.8537812947,-0.6689978635,-4.4714942315\C,0,3.9247
 044505,-0.7976544617,-5.9353980381\C,0,3.9780269331,-2.0614217124,-6.5
 329842524\C,0,4.0450114626,-2.1960804857,-7.9135202675\O,0,4.095641254
 3,-3.4558956511,-8.4347350284\C,0,3.8114777416,-3.4964487928,-9.826495
 4933\C,0,4.5725010576,-2.4000082855,-10.553359822\O,0,4.1662424402,-1.
 1208552817,-10.0840474872\C,0,4.0745188741,-1.0473282932,-8.727174592\
 C,0,4.0033653139,0.211978199,-8.136921811\C,0,3.9278560666,0.339377665
 7,-6.7569935443\C,0,4.5365674785,0.3647033417,-3.8037205818\N,0,4.5032
 986548,0.547432112,-2.4899727439\O,0,2.9518151825,-1.0665116456,0.6037
 457826\O,0,3.5549624063,1.3699439074,0.2737616572\H,0,2.5238392882,-2.
 057874572,-1.6500139854\H,0,2.5547213625,-2.3620872551,-4.1502225954\H
 ,0,3.9944208488,-2.9680594372,-5.9343469899\H,0,2.7316026416,-3.370621
 1431,-9.9861102689\H,0,4.1118510976,-4.4878173624,-10.1743110121\H,0,4
 .3665090872,-2.4145364275,-11.6263597502\H,0,5.652065374,-2.5240751711
 ,-10.3918335537\H,0,4.0089255845,1.0832317806,-8.7856088895\H,0,3.8450
 119926,1.3284719906,-6.3153639069\H,0,5.1527198001,1.0630851547,-4.366
 0304665\\Version=ES64L-G16RevC.01\State=1-A\HF=-1354.1623057\RMSD=4.53
 6e-09\Dipole=-0.0801072,-1.4291552,-3.5328731\Quadrupole=1.3080579,3.2
 170935,-4.5251514,1.2660036,-0.2217869,-0.1100975\PG=C01 [X(C13H10F1N1
 O4S1)]\\@
 The archive entry for this job was punched.


 THERE IS NO SUBJECT, HOWEVER COMPLEX,
 WHICH, IF STUDIED WITH PATIENCE AND INTELLIGIENCE
 WILL NOT BECOME
 MORE COMPLEX
                        QUOTED BY D. GORDON ROHMAN
 Job cpu time:       0 days  0 hours  8 minutes 52.5 seconds.
 Elapsed time:       0 days  0 hours  0 minutes 46.9 seconds.
 File lengths (MBytes):  RWF=     77 Int=      0 D2E=      0 Chk=     12 Scr=      2
 Normal termination of Gaussian 16 at Fri Oct  4 16:38:34 2024.
