 Entering Gaussian System, Link 0=g16
 Input=ID-4005.com
 Output=ID-4005.log
 Initial command:
 /uufs/chpc.utah.edu/sys/installdir/gaussian16/C01/AVX/g16/l1.exe "/scratch/general/vast/u1318517/1930435-notchpeak.peaks/Gau-609412.inp" -scrdir="/scratch/general/vast/u1318517/1930435-notchpeak.peaks/"
 Entering Link 1 = /uufs/chpc.utah.edu/sys/installdir/gaussian16/C01/AVX/g16/l1.exe PID=    609413.
  
 Copyright (c) 1988-2019, Gaussian, Inc.  All Rights Reserved.
  
 This is part of the Gaussian(R) 16 program.  It is based on
 the Gaussian(R) 09 system (copyright 2009, Gaussian, Inc.),
 the Gaussian(R) 03 system (copyright 2003, Gaussian, Inc.),
 the Gaussian(R) 98 system (copyright 1998, Gaussian, Inc.),
 the Gaussian(R) 94 system (copyright 1995, Gaussian, Inc.),
 the Gaussian 92(TM) system (copyright 1992, Gaussian, Inc.),
 the Gaussian 90(TM) system (copyright 1990, Gaussian, Inc.),
 the Gaussian 88(TM) system (copyright 1988, Gaussian, Inc.),
 the Gaussian 86(TM) system (copyright 1986, Carnegie Mellon
 University), and the Gaussian 82(TM) system (copyright 1983,
 Carnegie Mellon University). Gaussian is a federally registered
 trademark of Gaussian, Inc.
  
 This software contains proprietary and confidential information,
 including trade secrets, belonging to Gaussian, Inc.
  
 This software is provided under written license and may be
 used, copied, transmitted, or stored only in accord with that
 written license.
  
 The following legend is applicable only to US Government
 contracts under FAR:
  
                    RESTRICTED RIGHTS LEGEND
  
 Use, reproduction and disclosure by the US Government is
 subject to restrictions as set forth in subparagraphs (a)
 and (c) of the Commercial Computer Software - Restricted
 Rights clause in FAR 52.227-19.
  
 Gaussian, Inc.
 340 Quinnipiac St., Bldg. 40, Wallingford CT 06492
  
  
 ---------------------------------------------------------------
 Warning -- This program may not be used in any manner that
 competes with the business of Gaussian, Inc. or will provide
 assistance to any competitor of Gaussian, Inc.  The licensee
 of this program is prohibited from giving any competitor of
 Gaussian, Inc. access to this program.  By using this program,
 the user acknowledges that Gaussian, Inc. is engaged in the
 business of creating and licensing software in the field of
 computational chemistry and represents and warrants to the
 licensee that it is not a competitor of Gaussian, Inc. and that
 it will not use this program in any manner prohibited above.
 ---------------------------------------------------------------
  

 Cite this work as:
 Gaussian 16, Revision C.01,
 M. J. Frisch, G. W. Trucks, H. B. Schlegel, G. E. Scuseria, 
 M. A. Robb, J. R. Cheeseman, G. Scalmani, V. Barone, 
 G. A. Petersson, H. Nakatsuji, X. Li, M. Caricato, A. V. Marenich, 
 J. Bloino, B. G. Janesko, R. Gomperts, B. Mennucci, H. P. Hratchian, 
 J. V. Ortiz, A. F. Izmaylov, J. L. Sonnenberg, D. Williams-Young, 
 F. Ding, F. Lipparini, F. Egidi, J. Goings, B. Peng, A. Petrone, 
 T. Henderson, D. Ranasinghe, V. G. Zakrzewski, J. Gao, N. Rega, 
 G. Zheng, W. Liang, M. Hada, M. Ehara, K. Toyota, R. Fukuda, 
 J. Hasegawa, M. Ishida, T. Nakajima, Y. Honda, O. Kitao, H. Nakai, 
 T. Vreven, K. Throssell, J. A. Montgomery, Jr., J. E. Peralta, 
 F. Ogliaro, M. J. Bearpark, J. J. Heyd, E. N. Brothers, K. N. Kudin, 
 V. N. Staroverov, T. A. Keith, R. Kobayashi, J. Normand, 
 K. Raghavachari, A. P. Rendell, J. C. Burant, S. S. Iyengar, 
 J. Tomasi, M. Cossi, J. M. Millam, M. Klene, C. Adamo, R. Cammi, 
 J. W. Ochterski, R. L. Martin, K. Morokuma, O. Farkas, 
 J. B. Foresman, and D. J. Fox, Gaussian, Inc., Wallingford CT, 2019.
 
 ******************************************
 Gaussian 16:  ES64L-G16RevC.01  3-Jul-2019
                 4-Oct-2024 
 ******************************************
 %nprocs=16
 Will use up to   16 processors via shared memory.
 %mem=16000MB
 %chk=ID-4005.chk
 -------------------------------
 #p apfd/6-31G* opt freq=noraman
 -------------------------------
 1/18=20,19=15,26=3,38=1/1,3;
 2/9=110,12=2,17=6,18=5,40=1/2;
 3/5=1,6=6,7=1,11=2,25=1,30=1,71=1,74=-44/1,2,3;
 4//1;
 5/5=2,38=5/2;
 6/7=2,8=2,9=2,10=2,28=1/1;
 7//1,2,3,16;
 1/18=20,19=15,26=3/3(2);
 2/9=110/2;
 99//99;
 2/9=110/2;
 3/5=1,6=6,7=1,11=2,25=1,30=1,71=1,74=-44/1,2,3;
 4/5=5,16=3,69=1/1;
 5/5=2,38=5/2;
 7//1,2,3,16;
 1/18=20,19=15,26=3/3(-5);
 2/9=110/2;
 6/7=2,8=2,9=2,10=2,19=2,28=1/1;
 99/9=1/99;
 Leave Link    1 at Fri Oct  4 16:38:44 2024, MaxMem=  2097152000 cpu:               1.1 elap:               0.1
 (Enter /uufs/chpc.utah.edu/sys/installdir/gaussian16/C01/AVX/g16/l101.exe)
 -------
 ID-4005
 -------
 Symbolic Z-matrix:
 Charge =  0 Multiplicity = 1
 C                     1.07077  -0.01807  -0.03869 
 N                     2.51562   0.02898  -0.02069 
 C                     3.2545    1.1833   -0.0205 
 C                     4.58445   0.83214  -0.00383 
 C                     4.65608  -0.58695   0.00376 
 C                     3.34854  -1.07162  -0.00516 
 C                     3.07426  -2.4455   -0.00059 
 C                     4.16087  -3.3365    0.01243 
 C                     5.49639  -2.89973   0.01026 
 C                     6.63459  -3.84777  -0.02795 
 C                     7.85903  -3.56874   0.60822 
 C                     8.95095  -4.4259    0.47491 
 C                     8.77249  -5.56494  -0.28871 
 S                     10.1444  -6.65199  -0.59424 
 F                     9.61818  -7.84879  -1.49373 
 O                     11.10215  -5.93506  -1.419 
 O                     10.52785  -7.25026   0.67077 
 N                     7.6123   -5.92185  -0.89397 
 C                     6.58222  -5.05048  -0.74534 
 C                     5.72507  -1.50729   0.00794 
 H                     0.67096   0.9995   -0.04306 
 H                     0.73044  -0.54384   0.85678 
 H                     0.75275  -0.54295  -0.9429 
 H                     2.78242   2.15707  -0.03385 
 H                     5.41835   1.52148  -0.00075 
 H                     2.05573  -2.82066  -0.00873 
 H                     3.93039  -4.40075   0.02862 
 H                     7.97917  -2.66678   1.20542 
 H                     9.90571  -4.19543   0.93578 
 H                     5.67903  -5.35059  -1.27268 
 H                     6.73542  -1.10891  -0.01562 
 
 ITRead=  0  0  0  0  0  0  0  0  0  0  0  0  0  0  0  0  0  0  0  0
 ITRead=  0  0  0  0  0  0  0  0  0  0  0
 MicOpt= -1 -1 -1 -1 -1 -1 -1 -1 -1 -1 -1 -1 -1 -1 -1 -1 -1 -1 -1 -1
 MicOpt= -1 -1 -1 -1 -1 -1 -1 -1 -1 -1 -1
 NAtoms=     31 NQM=       31 NQMF=       0 NMMI=      0 NMMIF=      0
                NMic=       0 NMicF=      0.
                    Isotopes and Nuclear Properties:
 (Nuclear quadrupole moments (NQMom) in fm**2, nuclear magnetic moments (NMagM)
  in nuclear magnetons)

  Atom         1           2           3           4           5           6           7           8           9          10
 IAtWgt=          12          14          12          12          12          12          12          12          12          12
 AtmWgt=  12.0000000  14.0030740  12.0000000  12.0000000  12.0000000  12.0000000  12.0000000  12.0000000  12.0000000  12.0000000
 NucSpn=           0           2           0           0           0           0           0           0           0           0
 AtZEff=  -0.0000000  -0.0000000  -0.0000000  -0.0000000  -0.0000000  -0.0000000  -0.0000000  -0.0000000  -0.0000000  -0.0000000
 NQMom=    0.0000000   2.0440000   0.0000000   0.0000000   0.0000000   0.0000000   0.0000000   0.0000000   0.0000000   0.0000000
 NMagM=    0.0000000   0.4037610   0.0000000   0.0000000   0.0000000   0.0000000   0.0000000   0.0000000   0.0000000   0.0000000
 AtZNuc=   6.0000000   7.0000000   6.0000000   6.0000000   6.0000000   6.0000000   6.0000000   6.0000000   6.0000000   6.0000000

  Atom        11          12          13          14          15          16          17          18          19          20
 IAtWgt=          12          12          12          32          19          16          16          14          12          12
 AtmWgt=  12.0000000  12.0000000  12.0000000  31.9720718  18.9984032  15.9949146  15.9949146  14.0030740  12.0000000  12.0000000
 NucSpn=           0           0           0           0           1           0           0           2           0           0
 AtZEff=  -0.0000000  -0.0000000  -0.0000000  -0.0000000  -0.0000000  -0.0000000  -0.0000000  -0.0000000  -0.0000000  -0.0000000
 NQMom=    0.0000000   0.0000000   0.0000000   0.0000000   0.0000000   0.0000000   0.0000000   2.0440000   0.0000000   0.0000000
 NMagM=    0.0000000   0.0000000   0.0000000   0.0000000   2.6288670   0.0000000   0.0000000   0.4037610   0.0000000   0.0000000
 AtZNuc=   6.0000000   6.0000000   6.0000000  16.0000000   9.0000000   8.0000000   8.0000000   7.0000000   6.0000000   6.0000000

  Atom        21          22          23          24          25          26          27          28          29          30
 IAtWgt=           1           1           1           1           1           1           1           1           1           1
 AtmWgt=   1.0078250   1.0078250   1.0078250   1.0078250   1.0078250   1.0078250   1.0078250   1.0078250   1.0078250   1.0078250
 NucSpn=           1           1           1           1           1           1           1           1           1           1
 AtZEff=  -0.0000000  -0.0000000  -0.0000000  -0.0000000  -0.0000000  -0.0000000  -0.0000000  -0.0000000  -0.0000000  -0.0000000
 NQMom=    0.0000000   0.0000000   0.0000000   0.0000000   0.0000000   0.0000000   0.0000000   0.0000000   0.0000000   0.0000000
 NMagM=    2.7928460   2.7928460   2.7928460   2.7928460   2.7928460   2.7928460   2.7928460   2.7928460   2.7928460   2.7928460
 AtZNuc=   1.0000000   1.0000000   1.0000000   1.0000000   1.0000000   1.0000000   1.0000000   1.0000000   1.0000000   1.0000000

  Atom        31
 IAtWgt=           1
 AtmWgt=   1.0078250
 NucSpn=           1
 AtZEff=  -0.0000000
 NQMom=    0.0000000
 NMagM=    2.7928460
 AtZNuc=   1.0000000
 Leave Link  101 at Fri Oct  4 16:38:45 2024, MaxMem=  2097152000 cpu:              10.5 elap:               0.7
 (Enter /uufs/chpc.utah.edu/sys/installdir/gaussian16/C01/AVX/g16/l103.exe)

 GradGradGradGradGradGradGradGradGradGradGradGradGradGradGradGradGradGrad
 Berny optimization.
 Initialization pass.
                           ----------------------------
                           !    Initial Parameters    !
                           ! (Angstroms and Degrees)  !
 --------------------------                            --------------------------
 ! Name  Definition              Value          Derivative Info.                !
 --------------------------------------------------------------------------------
 ! R1    R(1,2)                  1.4457         estimate D2E/DX2                !
 ! R2    R(1,21)                 1.0933         estimate D2E/DX2                !
 ! R3    R(1,22)                 1.0928         estimate D2E/DX2                !
 ! R4    R(1,23)                 1.0928         estimate D2E/DX2                !
 ! R5    R(2,3)                  1.3705         estimate D2E/DX2                !
 ! R6    R(2,6)                  1.3803         estimate D2E/DX2                !
 ! R7    R(3,4)                  1.3756         estimate D2E/DX2                !
 ! R8    R(3,24)                 1.0823         estimate D2E/DX2                !
 ! R9    R(4,5)                  1.4209         estimate D2E/DX2                !
 ! R10   R(4,25)                 1.0819         estimate D2E/DX2                !
 ! R11   R(5,6)                  1.3945         estimate D2E/DX2                !
 ! R12   R(5,20)                 1.4106         estimate D2E/DX2                !
 ! R13   R(6,7)                  1.401          estimate D2E/DX2                !
 ! R14   R(7,8)                  1.4053         estimate D2E/DX2                !
 ! R15   R(7,26)                 1.0855         estimate D2E/DX2                !
 ! R16   R(8,9)                  1.4051         estimate D2E/DX2                !
 ! R17   R(8,27)                 1.089          estimate D2E/DX2                !
 ! R18   R(9,10)                 1.4818         estimate D2E/DX2                !
 ! R19   R(9,20)                 1.4111         estimate D2E/DX2                !
 ! R20   R(10,11)                1.4078         estimate D2E/DX2                !
 ! R21   R(10,19)                1.4014         estimate D2E/DX2                !
 ! R22   R(11,12)                1.3946         estimate D2E/DX2                !
 ! R23   R(11,28)                1.0884         estimate D2E/DX2                !
 ! R24   R(12,13)                1.3829         estimate D2E/DX2                !
 ! R25   R(12,29)                1.0849         estimate D2E/DX2                !
 ! R26   R(13,14)                1.7768         estimate D2E/DX2                !
 ! R27   R(13,18)                1.3564         estimate D2E/DX2                !
 ! R28   R(14,15)                1.5869         estimate D2E/DX2                !
 ! R29   R(14,16)                1.4531         estimate D2E/DX2                !
 ! R30   R(14,17)                1.4509         estimate D2E/DX2                !
 ! R31   R(18,19)                1.3574         estimate D2E/DX2                !
 ! R32   R(19,30)                1.0881         estimate D2E/DX2                !
 ! R33   R(20,31)                1.0863         estimate D2E/DX2                !
 ! A1    A(2,1,21)             109.5864         estimate D2E/DX2                !
 ! A2    A(2,1,22)             108.4639         estimate D2E/DX2                !
 ! A3    A(2,1,23)             108.4676         estimate D2E/DX2                !
 ! A4    A(21,1,22)            109.7061         estimate D2E/DX2                !
 ! A5    A(21,1,23)            109.7128         estimate D2E/DX2                !
 ! A6    A(22,1,23)            110.8736         estimate D2E/DX2                !
 ! A7    A(1,2,3)              124.4855         estimate D2E/DX2                !
 ! A8    A(1,2,6)              125.257          estimate D2E/DX2                !
 ! A9    A(3,2,6)              110.2573         estimate D2E/DX2                !
 ! A10   A(2,3,4)              107.8312         estimate D2E/DX2                !
 ! A11   A(2,3,24)             121.51           estimate D2E/DX2                !
 ! A12   A(4,3,24)             130.6587         estimate D2E/DX2                !
 ! A13   A(3,4,5)              107.6827         estimate D2E/DX2                !
 ! A14   A(3,4,25)             125.6297         estimate D2E/DX2                !
 ! A15   A(5,4,25)             126.6872         estimate D2E/DX2                !
 ! A16   A(4,5,6)              107.4461         estimate D2E/DX2                !
 ! A17   A(4,5,20)             133.6164         estimate D2E/DX2                !
 ! A18   A(6,5,20)             118.9355         estimate D2E/DX2                !
 ! A19   A(2,6,5)              106.7824         estimate D2E/DX2                !
 ! A20   A(2,6,7)              131.5913         estimate D2E/DX2                !
 ! A21   A(5,6,7)              121.6261         estimate D2E/DX2                !
 ! A22   A(6,7,8)              118.0616         estimate D2E/DX2                !
 ! A23   A(6,7,26)             121.5077         estimate D2E/DX2                !
 ! A24   A(8,7,26)             120.4306         estimate D2E/DX2                !
 ! A25   A(7,8,9)              122.5364         estimate D2E/DX2                !
 ! A26   A(7,8,27)             117.1359         estimate D2E/DX2                !
 ! A27   A(9,8,27)             120.3272         estimate D2E/DX2                !
 ! A28   A(8,9,10)             122.0889         estimate D2E/DX2                !
 ! A29   A(8,9,20)             117.4364         estimate D2E/DX2                !
 ! A30   A(10,9,20)            120.4514         estimate D2E/DX2                !
 ! A31   A(9,10,11)            121.9801         estimate D2E/DX2                !
 ! A32   A(9,10,19)            122.2475         estimate D2E/DX2                !
 ! A33   A(11,10,19)           115.718          estimate D2E/DX2                !
 ! A34   A(10,11,12)           121.064          estimate D2E/DX2                !
 ! A35   A(10,11,28)           120.5451         estimate D2E/DX2                !
 ! A36   A(12,11,28)           118.3844         estimate D2E/DX2                !
 ! A37   A(11,12,13)           117.2586         estimate D2E/DX2                !
 ! A38   A(11,12,29)           121.1893         estimate D2E/DX2                !
 ! A39   A(13,12,29)           121.5405         estimate D2E/DX2                !
 ! A40   A(12,13,14)           119.9485         estimate D2E/DX2                !
 ! A41   A(12,13,18)           124.9964         estimate D2E/DX2                !
 ! A42   A(14,13,18)           115.0061         estimate D2E/DX2                !
 ! A43   A(13,14,15)           107.6273         estimate D2E/DX2                !
 ! A44   A(13,14,16)           107.7374         estimate D2E/DX2                !
 ! A45   A(13,14,17)           107.8421         estimate D2E/DX2                !
 ! A46   A(15,14,16)           105.6007         estimate D2E/DX2                !
 ! A47   A(15,14,17)           105.7147         estimate D2E/DX2                !
 ! A48   A(16,14,17)           121.608          estimate D2E/DX2                !
 ! A49   A(13,18,19)           115.5522         estimate D2E/DX2                !
 ! A50   A(10,19,18)           125.3548         estimate D2E/DX2                !
 ! A51   A(10,19,30)           121.0532         estimate D2E/DX2                !
 ! A52   A(18,19,30)           113.5658         estimate D2E/DX2                !
 ! A53   A(5,20,9)             121.4003         estimate D2E/DX2                !
 ! A54   A(5,20,31)            117.7428         estimate D2E/DX2                !
 ! A55   A(9,20,31)            120.84           estimate D2E/DX2                !
 ! D1    D(21,1,2,3)            -0.4912         estimate D2E/DX2                !
 ! D2    D(21,1,2,6)           179.7041         estimate D2E/DX2                !
 ! D3    D(22,1,2,3)          -120.2356         estimate D2E/DX2                !
 ! D4    D(22,1,2,6)            59.9596         estimate D2E/DX2                !
 ! D5    D(23,1,2,3)           119.2636         estimate D2E/DX2                !
 ! D6    D(23,1,2,6)           -60.5411         estimate D2E/DX2                !
 ! D7    D(1,2,3,4)           -179.8668         estimate D2E/DX2                !
 ! D8    D(1,2,3,24)             0.0261         estimate D2E/DX2                !
 ! D9    D(6,2,3,4)             -0.0367         estimate D2E/DX2                !
 ! D10   D(6,2,3,24)           179.8562         estimate D2E/DX2                !
 ! D11   D(1,2,6,5)            179.7705         estimate D2E/DX2                !
 ! D12   D(1,2,6,7)             -0.0957         estimate D2E/DX2                !
 ! D13   D(3,2,6,5)             -0.058          estimate D2E/DX2                !
 ! D14   D(3,2,6,7)           -179.9241         estimate D2E/DX2                !
 ! D15   D(2,3,4,5)              0.1151         estimate D2E/DX2                !
 ! D16   D(2,3,4,25)           179.918          estimate D2E/DX2                !
 ! D17   D(24,3,4,5)          -179.7645         estimate D2E/DX2                !
 ! D18   D(24,3,4,25)            0.0384         estimate D2E/DX2                !
 ! D19   D(3,4,5,6)             -0.1508         estimate D2E/DX2                !
 ! D20   D(3,4,5,20)           179.3117         estimate D2E/DX2                !
 ! D21   D(25,4,5,6)          -179.9511         estimate D2E/DX2                !
 ! D22   D(25,4,5,20)           -0.4885         estimate D2E/DX2                !
 ! D23   D(4,5,6,2)              0.1268         estimate D2E/DX2                !
 ! D24   D(4,5,6,7)           -179.9908         estimate D2E/DX2                !
 ! D25   D(20,5,6,2)          -179.4286         estimate D2E/DX2                !
 ! D26   D(20,5,6,7)             0.4538         estimate D2E/DX2                !
 ! D27   D(4,5,20,9)          -179.7458         estimate D2E/DX2                !
 ! D28   D(4,5,20,31)           -1.2325         estimate D2E/DX2                !
 ! D29   D(6,5,20,9)            -0.3316         estimate D2E/DX2                !
 ! D30   D(6,5,20,31)          178.1816         estimate D2E/DX2                !
 ! D31   D(2,6,7,8)            179.8059         estimate D2E/DX2                !
 ! D32   D(2,6,7,26)            -0.0775         estimate D2E/DX2                !
 ! D33   D(5,6,7,8)             -0.0436         estimate D2E/DX2                !
 ! D34   D(5,6,7,26)          -179.927          estimate D2E/DX2                !
 ! D35   D(6,7,8,9)             -0.5148         estimate D2E/DX2                !
 ! D36   D(6,7,8,27)           179.2437         estimate D2E/DX2                !
 ! D37   D(26,7,8,9)           179.3699         estimate D2E/DX2                !
 ! D38   D(26,7,8,27)           -0.8716         estimate D2E/DX2                !
 ! D39   D(7,8,9,10)          -177.6252         estimate D2E/DX2                !
 ! D40   D(7,8,9,20)             0.6259         estimate D2E/DX2                !
 ! D41   D(27,8,9,10)            2.6237         estimate D2E/DX2                !
 ! D42   D(27,8,9,20)         -179.1251         estimate D2E/DX2                !
 ! D43   D(8,9,10,11)         -147.5214         estimate D2E/DX2                !
 ! D44   D(8,9,10,19)           35.2782         estimate D2E/DX2                !
 ! D45   D(20,9,10,11)          34.2791         estimate D2E/DX2                !
 ! D46   D(20,9,10,19)        -142.9213         estimate D2E/DX2                !
 ! D47   D(8,9,20,5)            -0.1922         estimate D2E/DX2                !
 ! D48   D(8,9,20,31)         -178.6596         estimate D2E/DX2                !
 ! D49   D(10,9,20,5)          178.0891         estimate D2E/DX2                !
 ! D50   D(10,9,20,31)          -0.3783         estimate D2E/DX2                !
 ! D51   D(9,10,11,12)        -175.0269         estimate D2E/DX2                !
 ! D52   D(9,10,11,28)           4.0254         estimate D2E/DX2                !
 ! D53   D(19,10,11,12)          2.3452         estimate D2E/DX2                !
 ! D54   D(19,10,11,28)       -178.6026         estimate D2E/DX2                !
 ! D55   D(9,10,19,18)         175.5507         estimate D2E/DX2                !
 ! D56   D(9,10,19,30)          -2.4627         estimate D2E/DX2                !
 ! D57   D(11,10,19,18)         -1.8136         estimate D2E/DX2                !
 ! D58   D(11,10,19,30)       -179.8271         estimate D2E/DX2                !
 ! D59   D(10,11,12,13)         -0.9347         estimate D2E/DX2                !
 ! D60   D(10,11,12,29)        177.8442         estimate D2E/DX2                !
 ! D61   D(28,11,12,13)        179.9931         estimate D2E/DX2                !
 ! D62   D(28,11,12,29)         -1.228          estimate D2E/DX2                !
 ! D63   D(11,12,13,14)        175.9995         estimate D2E/DX2                !
 ! D64   D(11,12,13,18)         -1.3218         estimate D2E/DX2                !
 ! D65   D(29,12,13,14)         -2.7749         estimate D2E/DX2                !
 ! D66   D(29,12,13,18)        179.9038         estimate D2E/DX2                !
 ! D67   D(12,13,14,15)       -179.8689         estimate D2E/DX2                !
 ! D68   D(12,13,14,16)        -66.422          estimate D2E/DX2                !
 ! D69   D(12,13,14,17)         66.5013         estimate D2E/DX2                !
 ! D70   D(18,13,14,15)         -2.2901         estimate D2E/DX2                !
 ! D71   D(18,13,14,16)        111.1568         estimate D2E/DX2                !
 ! D72   D(18,13,14,17)       -115.9198         estimate D2E/DX2                !
 ! D73   D(12,13,18,19)          1.8731         estimate D2E/DX2                !
 ! D74   D(14,13,18,19)       -175.5659         estimate D2E/DX2                !
 ! D75   D(13,18,19,10)         -0.2085         estimate D2E/DX2                !
 ! D76   D(13,18,19,30)        177.9349         estimate D2E/DX2                !
 --------------------------------------------------------------------------------
 Trust Radius=3.00D-01 FncErr=1.00D-07 GrdErr=1.00D-06 EigMax=2.50D+02 EigMin=1.00D-04
 Number of steps in this run=    174 maximum allowed number of steps=    186.
 GradGradGradGradGradGradGradGradGradGradGradGradGradGradGradGradGradGrad

 Leave Link  103 at Fri Oct  4 16:38:45 2024, MaxMem=  2097152000 cpu:               0.3 elap:               0.0
 (Enter /uufs/chpc.utah.edu/sys/installdir/gaussian16/C01/AVX/g16/l202.exe)
                          Input orientation:                          
 ---------------------------------------------------------------------
 Center     Atomic      Atomic             Coordinates (Angstroms)
 Number     Number       Type             X           Y           Z
 ---------------------------------------------------------------------
      1          6           0        1.070770   -0.018070   -0.038690
      2          7           0        2.515620    0.028980   -0.020690
      3          6           0        3.254500    1.183300   -0.020500
      4          6           0        4.584450    0.832140   -0.003830
      5          6           0        4.656080   -0.586950    0.003760
      6          6           0        3.348540   -1.071620   -0.005160
      7          6           0        3.074260   -2.445500   -0.000590
      8          6           0        4.160870   -3.336500    0.012430
      9          6           0        5.496390   -2.899730    0.010260
     10          6           0        6.634590   -3.847770   -0.027950
     11          6           0        7.859030   -3.568740    0.608220
     12          6           0        8.950950   -4.425900    0.474910
     13          6           0        8.772490   -5.564940   -0.288710
     14         16           0       10.144400   -6.651990   -0.594240
     15          9           0        9.618180   -7.848790   -1.493730
     16          8           0       11.102150   -5.935060   -1.419000
     17          8           0       10.527850   -7.250260    0.670770
     18          7           0        7.612300   -5.921850   -0.893970
     19          6           0        6.582220   -5.050480   -0.745340
     20          6           0        5.725070   -1.507290    0.007940
     21          1           0        0.670960    0.999500   -0.043060
     22          1           0        0.730440   -0.543840    0.856780
     23          1           0        0.752750   -0.542950   -0.942900
     24          1           0        2.782420    2.157070   -0.033850
     25          1           0        5.418350    1.521480   -0.000750
     26          1           0        2.055730   -2.820660   -0.008730
     27          1           0        3.930390   -4.400750    0.028620
     28          1           0        7.979170   -2.666780    1.205420
     29          1           0        9.905710   -4.195430    0.935780
     30          1           0        5.679030   -5.350590   -1.272680
     31          1           0        6.735420   -1.108910   -0.015620
 ---------------------------------------------------------------------
                    Distance matrix (angstroms):
                    1          2          3          4          5
     1  C    0.000000
     2  N    1.445728   0.000000
     3  C    2.492448   1.370547   0.000000
     4  C    3.615248   2.219326   1.375630   0.000000
     5  C    3.630410   2.227451   2.258052   1.420917   0.000000
     6  C    2.509846   1.380332   2.256932   2.269753   1.394505
     7  C    3.147672   2.536835   3.633328   3.608824   2.440570
     8  C    4.534678   3.746251   4.609901   4.190136   2.793803
     9  C    5.281332   4.178910   4.658127   3.841704   2.460714
    10  C    6.754466   5.656426   6.061083   5.109326   3.814244
    11  C    7.688057   6.472337   6.646719   5.519531   4.417616
    12  C    9.043782   7.842515   8.009875   6.851460   5.779743
    13  C    9.494565   8.397154   8.721175   7.651370   6.466124
    14  S   11.253812  10.156899  10.449482   9.342046   8.201461
    15  F   11.683130  10.708663  11.146546  10.144791   8.921840
    16  O   11.727941  10.547679  10.687023   9.501480   8.495784
    17  O   11.926620  10.847179  11.158154  10.055062   8.906306
    18  N    8.853120   7.883600   8.380724   7.454972   6.164926
    19  C    7.496705   6.547004   7.103459   6.256688   4.918767
    20  C    4.886968   3.558302   3.652917   2.602707   1.410597
    21  H    1.093305   2.084510   2.590168   3.917263   4.289545
    22  H    1.092760   2.070011   3.181747   4.181790   4.017481
    23  H    1.092809   2.070093   3.176400   4.177876   4.016726
    24  H    2.767852   2.144790   1.082250   2.236885   3.322900
    25  H    4.612278   3.264015   2.190206   1.081937   2.241998
    26  H    2.970783   2.886536   4.179579   4.442679   3.428037
    27  H    5.233530   4.650432   5.625020   5.273707   3.882308
    28  H    7.502631   6.214567   6.216792   5.022833   4.100318
    29  H    9.821206   8.565857   8.607195   7.380727   6.438044
    30  H    7.155037   6.365093   7.080821   6.405797   5.036665
    31  H    5.768771   4.370530   4.167860   2.897324   2.143939
                    6          7          8          9         10
     6  C    0.000000
     7  C    1.400998   0.000000
     8  C    2.406215   1.405266   0.000000
     9  C    2.820547   2.464377   1.405129   0.000000
    10  C    4.301820   3.826625   2.526325   1.481803   0.000000
    11  C    5.191952   4.952408   3.753037   2.527291   1.407772
    12  C    6.547416   6.219612   4.934121   3.805139   2.439800
    13  C    7.049082   6.502595   5.130660   4.233859   2.754503
    14  S    8.813130   8.248264   6.867543   6.004071   4.528035
    15  F    9.351698   8.616722   7.239580   6.613950   5.201777
    16  O    9.261234   8.867690   7.548700   6.533036   5.123562
    17  O    9.496050   8.893393   7.502624   6.684233   5.217530
    18  N    6.518770   5.785926   4.406582   3.798410   2.451064
    19  C    5.180336   4.432421   3.061842   2.525012   1.401393
    20  C    2.416169   2.811957   2.406813   1.411095   2.511247
    21  H    3.385323   4.200676   5.566278   6.204161   7.685124
    22  H    2.806411   3.137656   4.503302   5.383409   6.823319
    23  H    2.810156   3.145958   4.509086   5.381918   6.808451
    24  H    3.278072   4.611933   5.664060   5.739234   7.134238
    25  H    3.317876   4.607786   5.018107   4.421912   5.505345
    26  H    2.174974   1.085456   2.167522   3.441621   4.692684
    27  H    3.379763   2.134670   1.089041   2.169275   2.760740
    28  H    5.045074   5.055845   4.056004   2.765297   2.173438
    29  H    7.323936   7.113913   5.881626   4.688020   3.427808
    30  H    5.034618   4.103972   2.830702   2.772365   2.172767
    31  H    3.387101   3.897537   3.404593   2.177820   2.740743
                   11         12         13         14         15
    11  C    0.000000
    12  C    1.394555   0.000000
    13  C    2.371436   1.382887   0.000000
    14  S    4.021847   2.742787   1.776841   0.000000
    15  F    5.082483   4.004612   2.717211   1.586922   0.000000
    16  O    4.497435   3.239154   2.615695   1.453101   2.422832
    17  O    4.547538   3.240676   2.615759   1.450935   2.422973
    18  N    2.802602   2.429750   1.356379   2.652258   2.845411
    19  C    2.378639   2.736785   2.295749   3.908554   4.196151
    20  C    3.027160   4.375231   5.083237   6.808894   7.591175
    21  H    8.541741   9.912694  10.430101  12.189962  12.666863
    22  H    7.747812   9.099066   9.549773  11.315370  11.742194
    23  H    7.877855   9.181393   9.484966  11.209149  11.501068
    24  H    7.679136   9.035767   9.776264  11.494013  12.205577
    25  H    5.677861   6.933747   7.845414   9.460095  10.376392
    26  H    5.883752   7.096109   7.261152   8.969308   9.202063
    27  H    4.057387   5.040420   4.990187   6.638521   6.823305
    28  H    1.088399   2.138342   3.355758   4.879436   6.068360
    29  H    2.165395   1.084935   2.158500   2.903898   4.396843
    30  H    3.386026   3.822902   3.253250   4.700367   4.669772
    31  H    2.775327   4.018907   4.907182   6.533122   7.478041
                   16         17         18         19         20
    16  O    0.000000
    17  O    2.535096   0.000000
    18  N    3.529148   3.565602   0.000000
    19  C    4.654682   4.734173   1.357366   0.000000
    20  C    7.110154   7.515833   4.885020   3.722409   0.000000
    21  H   12.601232  12.873476   9.839275   8.487547   5.641864
    22  H   11.908686  11.874338   8.907756   7.557772   5.157043
    23  H   11.679538  11.964302   8.717132   7.371538   5.153447
    24  H   11.688418  12.205983   9.451799   8.178843   4.699837
    25  H    9.482458  10.173561   7.811173   6.715628   3.044273
    26  H    9.670887   9.584357   6.424679   5.099392   3.897342
    27  H    7.475550   7.215161   4.089178   2.837845   3.404910
    28  H    5.227068   5.271614   3.890696   3.382153   2.803452
    29  H    3.162716   3.128782   3.404150   3.821369   5.056158
    30  H    5.456487   5.558489   2.051168   1.088074   4.051304
    31  H    6.658043   7.250506   4.970393   4.011475   1.086310
                   21         22         23         24         25
    21  H    0.000000
    22  H    1.787498   0.000000
    23  H    1.787611   1.799818   0.000000
    24  H    2.407969   3.506959   3.498005   0.000000
    25  H    4.776187   5.193978   5.188192   2.711678   0.000000
    26  H    4.063544   2.772979   2.785389   5.030557   5.491945
    27  H    6.308068   5.079496   5.091549   6.657833   6.106365
    28  H    8.271049   7.561251   7.832438   7.198023   5.055113
    29  H   10.640772   9.875522  10.032284   9.593524   7.327793
    30  H    8.180243   7.219971   6.891327   8.141868   6.993648
    31  H    6.420578   6.094274   6.080502   5.127686   2.941742
                   26         27         28         29         30
    26  H    0.000000
    27  H    2.452026   0.000000
    28  H    6.048552   4.558961   0.000000
    29  H    8.025228   6.047276   2.474072   0.000000
    30  H    4.596348   2.377671   4.316765   4.906782   0.000000
    31  H    4.982934   4.325085   2.337694   4.525760   4.548407
                   31
    31  H    0.000000
 Stoichiometry    C14H11FN2O2S
 Framework group  C1[X(C14H11FN2O2S)]
 Deg. of freedom    87
 Full point group                 C1      NOp   1
 Largest Abelian subgroup         C1      NOp   1
 Largest concise Abelian subgroup C1      NOp   1
                         Standard orientation:                         
 ---------------------------------------------------------------------
 Center     Atomic      Atomic             Coordinates (Angstroms)
 Number     Number       Type             X           Y           Z
 ---------------------------------------------------------------------
      1          6           0       -6.444948   -1.113231   -0.020908
      2          7           0       -5.414212   -0.103399   -0.110092
      3          6           0       -5.648348    1.225203   -0.351742
      4          6           0       -4.433713    1.870759   -0.368410
      5          6           0       -3.424981    0.898631   -0.130852
      6          6           0       -4.060247   -0.332265    0.030318
      7          6           0       -3.336427   -1.505282    0.281144
      8          6           0       -1.936834   -1.412844    0.366975
      9          6           0       -1.247998   -0.199455    0.200908
     10          6           0        0.231199   -0.121956    0.242245
     11          6           0        0.904923    1.010398    0.737921
     12          6           0        2.294709    1.106171    0.673823
     13          6           0        2.978510    0.037588    0.123438
     14         16           0        4.740046    0.127442   -0.091224
     15          9           0        5.215231   -1.239741   -0.741861
     16          8           0        5.013083    1.149840   -1.087043
     17          8           0        5.346944    0.167627    1.226072
     18          7           0        2.402651   -1.102371   -0.333338
     19          6           0        1.047857   -1.143697   -0.260763
     20          6           0       -2.018034    0.956595   -0.047650
     21          1           0       -7.424828   -0.650616   -0.166296
     22          1           0       -6.396734   -1.570361    0.970471
     23          1           0       -6.269090   -1.857279   -0.801740
     24          1           0       -6.651347    1.606111   -0.493755
     25          1           0       -4.284683    2.929081   -0.536732
     26          1           0       -3.832809   -2.462595    0.405124
     27          1           0       -1.390187   -2.331503    0.574953
     28          1           0        0.348326    1.841048    1.167843
     29          1           0        2.813541    1.992494    1.023577
     30          1           0        0.618054   -2.056605   -0.667915
     31          1           0       -1.541354    1.919787   -0.206101
 ---------------------------------------------------------------------
 Rotational constants (GHZ):           1.3115535           0.1056388           0.1009288
 Leave Link  202 at Fri Oct  4 16:38:45 2024, MaxMem=  2097152000 cpu:               0.1 elap:               0.0
 (Enter /uufs/chpc.utah.edu/sys/installdir/gaussian16/C01/AVX/g16/l301.exe)
 Standard basis: 6-31G(d) (6D, 7F)
 Ernie: Thresh=  0.10000D-02 Tol=  0.10000D-05 Strict=F.
 There are   326 symmetry adapted cartesian basis functions of A   symmetry.
 There are   326 symmetry adapted basis functions of A   symmetry.
   326 basis functions,   628 primitive gaussians,   326 cartesian basis functions
    75 alpha electrons       75 beta electrons
       nuclear repulsion energy      1560.0585611665 Hartrees.
 IExCor= 3731 DFT=T Ex+Corr=APFD ExCW=0 ScaHFX=  0.229450
 ScaDFX=  1.000000  1.000000  1.000000  1.000000 ScalE2=  1.000000  1.000000
 IRadAn=      5 IRanWt=     -1 IRanGd=            0 ICorTp=0 IEmpDi=211
 NAtoms=   31 NActive=   31 NUniq=   31 SFac= 1.00D+00 NAtFMM=   60 NAOKFM=F Big=F
 Integral buffers will be    131072 words long.
 Raffenetti 2 integral format.
 Two-electron integral symmetry is turned on.
 R6APFD:  NTU= -4 IXU= 1 FactS= 1.050
 R6Disp:  Petersson-Frisch Dispersion energy=       -0.0263581410 Hartrees.
 Nuclear repulsion after empirical dispersion term =     1560.0322030255 Hartrees.
 Leave Link  301 at Fri Oct  4 16:38:45 2024, MaxMem=  2097152000 cpu:               0.9 elap:               0.1
 (Enter /uufs/chpc.utah.edu/sys/installdir/gaussian16/C01/AVX/g16/l302.exe)
 NPDir=0 NMtPBC=     1 NCelOv=     1 NCel=       1 NClECP=     1 NCelD=      1
         NCelK=      1 NCelE2=     1 NClLst=     1 CellRange=     0.0.
 One-electron integrals computed using PRISM.
 One-electron integral symmetry used in STVInt
 NBasis=   326 RedAO= T EigKep=  3.46D-04  NBF=   326
 NBsUse=   326 1.00D-06 EigRej= -1.00D+00 NBFU=   326
 Precomputing XC quadrature grid using
 IXCGrd= 4 IRadAn=           5 IRanWt=          -1 IRanGd=           0 AccXCQ= 0.00D+00.
 Generated NRdTot=       0 NPtTot=           0 NUsed=           0 NTot=          32
 NSgBfM=   320   320   320   320   320 MxSgAt=    31 MxSgA2=    31.
 Leave Link  302 at Fri Oct  4 16:38:45 2024, MaxMem=  2097152000 cpu:               5.8 elap:               0.4
 (Enter /uufs/chpc.utah.edu/sys/installdir/gaussian16/C01/AVX/g16/l303.exe)
 DipDrv:  MaxL=1.
 Leave Link  303 at Fri Oct  4 16:38:45 2024, MaxMem=  2097152000 cpu:               0.9 elap:               0.1
 (Enter /uufs/chpc.utah.edu/sys/installdir/gaussian16/C01/AVX/g16/l401.exe)
 ExpMin= 1.17D-01 ExpMax= 2.19D+04 ExpMxC= 3.30D+03 IAcc=3 IRadAn=         5 AccDes= 0.00D+00
 Harris functional with IExCor= 3731 and IRadAn=       5 diagonalized for initial guess.
 HarFok:  IExCor= 3731 AccDes= 0.00D+00 IRadAn=         5 IDoV= 1 UseB2=F ITyADJ=14
 ICtDFT=  3500011 ScaDFX=  1.000000  1.000000  1.000000  1.000000
 FoFCou: FMM=F IPFlag=           0 FMFlag=      100000 FMFlg1=           0
         NFxFlg=           0 DoJE=T BraDBF=F KetDBF=T FulRan=T
         wScrn=  0.000000 ICntrl=       500 IOpCl=  0 I1Cent=   200000004 NGrid=           0
         NMat0=    1 NMatS0=      1 NMatT0=    0 NMatD0=    1 NMtDS0=    0 NMtDT0=    0
 Petite list used in FoFCou.
 Harris En= -1265.23940742095    
 JPrj=0 DoOrth=F DoCkMO=F.
 Leave Link  401 at Fri Oct  4 16:38:47 2024, MaxMem=  2097152000 cpu:              20.2 elap:               1.3
 (Enter /uufs/chpc.utah.edu/sys/installdir/gaussian16/C01/AVX/g16/l502.exe)
 Integral symmetry usage will be decided dynamically.
 Closed shell SCF:
 Using DIIS extrapolation, IDIIS=  1040.
 NGot=  2097152000 LenX=  2096930007 LenY=  2096823290
 Requested convergence on RMS density matrix=1.00D-08 within 128 cycles.
 Requested convergence on MAX density matrix=1.00D-06.
 Requested convergence on             energy=1.00D-06.
 No special actions if energy rises.
 Fock matrices will be formed incrementally for  20 cycles.
 Integral accuracy reduced to 1.0D-05 until final iterations.

 Cycle   1  Pass 0  IDiag  1:
 FoFJK:  IHMeth= 1 ICntrl=       0 DoSepK=F KAlg= 0 I1Cent=           0 FoldK=F
 IRaf= 720000000 NMat=       1 IRICut=       1 DoRegI=T DoRafI=F ISym2E= 0 IDoP0=0 IntGTp=1.
 FoFCou: FMM=F IPFlag=           0 FMFlag=      100000 FMFlg1=           0
         NFxFlg=           0 DoJE=F BraDBF=F KetDBF=F FulRan=T
         wScrn=  0.000000 ICntrl=         0 IOpCl=  0 I1Cent=           0 NGrid=           0
         NMat0=    1 NMatS0=      1 NMatT0=    0 NMatD0=    1 NMtDS0=    0 NMtDT0=    0
 Symmetry not used in FoFCou.
 E= -1296.76077481788    
 DIIS: error= 7.47D-02 at cycle   1 NSaved=   1.
 NSaved= 1 IEnMin= 1 EnMin= -1296.76077481788     IErMin= 1 ErrMin= 7.47D-02
 ErrMax= 7.47D-02  0.00D+00 EMaxC= 1.00D-01 BMatC= 1.28D+00 BMatP= 1.28D+00
 IDIUse=3 WtCom= 2.53D-01 WtEn= 7.47D-01
 Coeff-Com:  0.100D+01
 Coeff-En:   0.100D+01
 Coeff:      0.100D+01
 Gap=     0.196 Goal=   None    Shift=    0.000
 GapD=    0.196 DampG=1.000 DampE=0.500 DampFc=0.5000 IDamp=-1.
 Damping current iteration by 5.00D-01
 RMSDP=5.81D-03 MaxDP=5.96D-01              OVMax= 2.91D-01

 Cycle   2  Pass 0  IDiag  1:
 RMSU=  2.91D-03    CP:  1.00D+00
 E= -1296.88053338206     Delta-E=       -0.119758564176 Rises=F Damp=T
 DIIS: error= 2.89D-02 at cycle   2 NSaved=   2.
 NSaved= 2 IEnMin= 2 EnMin= -1296.88053338206     IErMin= 2 ErrMin= 2.89D-02
 ErrMax= 2.89D-02  0.00D+00 EMaxC= 1.00D-01 BMatC= 2.61D-01 BMatP= 1.28D+00
 IDIUse=3 WtCom= 7.11D-01 WtEn= 2.89D-01
 Coeff-Com: -0.713D-01 0.107D+01
 Coeff-En:   0.329D+00 0.671D+00
 Coeff:      0.446D-01 0.955D+00
 Gap=     0.252 Goal=   None    Shift=    0.000
 RMSDP=2.47D-03 MaxDP=8.44D-02 DE=-1.20D-01 OVMax= 3.45D-01

 Cycle   3  Pass 0  IDiag  1:
 RMSU=  2.25D-03    CP:  1.01D+00  6.48D-01
 E= -1297.00111024930     Delta-E=       -0.120576867243 Rises=F Damp=F
 DIIS: error= 2.10D-02 at cycle   3 NSaved=   3.
 NSaved= 3 IEnMin= 3 EnMin= -1297.00111024930     IErMin= 3 ErrMin= 2.10D-02
 ErrMax= 2.10D-02  0.00D+00 EMaxC= 1.00D-01 BMatC= 2.42D-01 BMatP= 2.61D-01
 IDIUse=3 WtCom= 7.90D-01 WtEn= 2.10D-01
 Coeff-Com: -0.225D+00 0.643D+00 0.582D+00
 Coeff-En:   0.000D+00 0.327D+00 0.673D+00
 Coeff:     -0.177D+00 0.577D+00 0.601D+00
 Gap=     0.175 Goal=   None    Shift=    0.000
 RMSDP=2.03D-03 MaxDP=6.50D-02 DE=-1.21D-01 OVMax= 1.58D-01

 Cycle   4  Pass 0  IDiag  1:
 RMSU=  1.04D-03    CP:  1.01D+00  1.01D+00  3.84D-01
 E= -1297.18096830799     Delta-E=       -0.179858058688 Rises=F Damp=F
 DIIS: error= 9.78D-03 at cycle   4 NSaved=   4.
 NSaved= 4 IEnMin= 4 EnMin= -1297.18096830799     IErMin= 4 ErrMin= 9.78D-03
 ErrMax= 9.78D-03  0.00D+00 EMaxC= 1.00D-01 BMatC= 3.96D-02 BMatP= 2.42D-01
 IDIUse=3 WtCom= 9.02D-01 WtEn= 9.78D-02
 Coeff-Com: -0.992D-01 0.236D+00 0.367D+00 0.496D+00
 Coeff-En:   0.000D+00 0.000D+00 0.178D+00 0.822D+00
 Coeff:     -0.895D-01 0.213D+00 0.349D+00 0.528D+00
 Gap=     0.162 Goal=   None    Shift=    0.000
 RMSDP=8.01D-04 MaxDP=2.88D-02 DE=-1.80D-01 OVMax= 6.07D-02

 Cycle   5  Pass 0  IDiag  1:
 RMSU=  3.34D-04    CP:  1.01D+00  9.47D-01  5.96D-01  5.06D-01
 E= -1297.21556062363     Delta-E=       -0.034592315638 Rises=F Damp=F
 DIIS: error= 3.56D-03 at cycle   5 NSaved=   5.
 NSaved= 5 IEnMin= 5 EnMin= -1297.21556062363     IErMin= 5 ErrMin= 3.56D-03
 ErrMax= 3.56D-03  0.00D+00 EMaxC= 1.00D-01 BMatC= 3.65D-03 BMatP= 3.96D-02
 IDIUse=3 WtCom= 9.64D-01 WtEn= 3.56D-02
 Coeff-Com: -0.435D-01 0.956D-01 0.177D+00 0.333D+00 0.438D+00
 Coeff-En:   0.000D+00 0.000D+00 0.000D+00 0.707D-01 0.929D+00
 Coeff:     -0.420D-01 0.922D-01 0.171D+00 0.323D+00 0.456D+00
 Gap=     0.157 Goal=   None    Shift=    0.000
 RMSDP=2.50D-04 MaxDP=8.08D-03 DE=-3.46D-02 OVMax= 2.11D-02

 Cycle   6  Pass 0  IDiag  1:
 RMSU=  1.17D-04    CP:  1.01D+00  9.64D-01  5.65D-01  6.13D-01  4.90D-01
 E= -1297.21920624884     Delta-E=       -0.003645625210 Rises=F Damp=F
 DIIS: error= 7.77D-04 at cycle   6 NSaved=   6.
 NSaved= 6 IEnMin= 6 EnMin= -1297.21920624884     IErMin= 6 ErrMin= 7.77D-04
 ErrMax= 7.77D-04  0.00D+00 EMaxC= 1.00D-01 BMatC= 2.13D-04 BMatP= 3.65D-03
 IDIUse=3 WtCom= 9.92D-01 WtEn= 7.77D-03
 Coeff-Com: -0.314D-02 0.491D-02 0.149D-01 0.604D-01 0.235D+00 0.688D+00
 Coeff-En:   0.000D+00 0.000D+00 0.000D+00 0.000D+00 0.212D-01 0.979D+00
 Coeff:     -0.312D-02 0.487D-02 0.148D-01 0.600D-01 0.234D+00 0.690D+00
 Gap=     0.156 Goal=   None    Shift=    0.000
 RMSDP=6.30D-05 MaxDP=1.96D-03 DE=-3.65D-03 OVMax= 4.37D-03

 Cycle   7  Pass 0  IDiag  1:
 RMSU=  3.36D-05    CP:  1.01D+00  9.62D-01  5.71D-01  6.07D-01  5.94D-01
                    CP:  6.82D-01
 E= -1297.21940107013     Delta-E=       -0.000194821294 Rises=F Damp=F
 DIIS: error= 1.89D-04 at cycle   7 NSaved=   7.
 NSaved= 7 IEnMin= 7 EnMin= -1297.21940107013     IErMin= 7 ErrMin= 1.89D-04
 ErrMax= 1.89D-04  0.00D+00 EMaxC= 1.00D-01 BMatC= 2.66D-05 BMatP= 2.13D-04
 IDIUse=3 WtCom= 9.98D-01 WtEn= 1.89D-03
 Coeff-Com:  0.642D-03-0.219D-02-0.209D-02 0.133D-01 0.104D+00 0.406D+00
 Coeff-Com:  0.480D+00
 Coeff-En:   0.000D+00 0.000D+00 0.000D+00 0.000D+00 0.000D+00 0.510D-01
 Coeff-En:   0.949D+00
 Coeff:      0.641D-03-0.218D-02-0.209D-02 0.133D-01 0.104D+00 0.405D+00
 Coeff:      0.481D+00
 Gap=     0.157 Goal=   None    Shift=    0.000
 RMSDP=2.02D-05 MaxDP=8.89D-04 DE=-1.95D-04 OVMax= 1.73D-03

 Cycle   8  Pass 0  IDiag  1:
 RMSU=  1.03D-05    CP:  1.01D+00  9.62D-01  5.70D-01  6.08D-01  5.94D-01
                    CP:  7.29D-01  5.19D-01
 E= -1297.21942670326     Delta-E=       -0.000025633132 Rises=F Damp=F
 DIIS: error= 4.46D-05 at cycle   8 NSaved=   8.
 NSaved= 8 IEnMin= 8 EnMin= -1297.21942670326     IErMin= 8 ErrMin= 4.46D-05
 ErrMax= 4.46D-05  0.00D+00 EMaxC= 1.00D-01 BMatC= 1.86D-06 BMatP= 2.66D-05
 IDIUse=1 WtCom= 1.00D+00 WtEn= 0.00D+00
 Coeff-Com:  0.726D-03-0.180D-02-0.287D-02 0.164D-02 0.366D-01 0.173D+00
 Coeff-Com:  0.273D+00 0.520D+00
 Coeff:      0.726D-03-0.180D-02-0.287D-02 0.164D-02 0.366D-01 0.173D+00
 Coeff:      0.273D+00 0.520D+00
 Gap=     0.157 Goal=   None    Shift=    0.000
 RMSDP=5.96D-06 MaxDP=1.92D-04 DE=-2.56D-05 OVMax= 5.14D-04

 Initial convergence to 1.0D-05 achieved.  Increase integral accuracy.
 Cycle   9  Pass 1  IDiag  1:
 E= -1297.21945561980     Delta-E=       -0.000028916535 Rises=F Damp=F
 DIIS: error= 4.90D-05 at cycle   1 NSaved=   1.
 NSaved= 1 IEnMin= 1 EnMin= -1297.21945561980     IErMin= 1 ErrMin= 4.90D-05
 ErrMax= 4.90D-05  0.00D+00 EMaxC= 1.00D-01 BMatC= 6.78D-07 BMatP= 6.78D-07
 IDIUse=1 WtCom= 1.00D+00 WtEn= 0.00D+00
 Coeff-Com:  0.100D+01
 Coeff:      0.100D+01
 Gap=     0.157 Goal=   None    Shift=    0.000
 RMSDP=5.96D-06 MaxDP=1.92D-04 DE=-2.89D-05 OVMax= 3.62D-04

 Cycle  10  Pass 1  IDiag  1:
 RMSU=  3.96D-05    CP:  1.00D+00
 E= -1297.21945564485     Delta-E=       -0.000000025049 Rises=F Damp=F
 DIIS: error= 3.34D-05 at cycle   2 NSaved=   2.
 NSaved= 2 IEnMin= 2 EnMin= -1297.21945564485     IErMin= 2 ErrMin= 3.34D-05
 ErrMax= 3.34D-05  0.00D+00 EMaxC= 1.00D-01 BMatC= 5.53D-07 BMatP= 6.78D-07
 IDIUse=1 WtCom= 1.00D+00 WtEn= 0.00D+00
 Coeff-Com:  0.466D+00 0.534D+00
 Coeff:      0.466D+00 0.534D+00
 Gap=     0.157 Goal=   None    Shift=    0.000
 RMSDP=4.04D-06 MaxDP=1.40D-04 DE=-2.50D-08 OVMax= 4.10D-04

 Cycle  11  Pass 1  IDiag  1:
 RMSU=  4.04D-06    CP:  1.00D+00  9.99D-01
 E= -1297.21945602071     Delta-E=       -0.000000375863 Rises=F Damp=F
 DIIS: error= 2.30D-05 at cycle   3 NSaved=   3.
 NSaved= 3 IEnMin= 3 EnMin= -1297.21945602071     IErMin= 3 ErrMin= 2.30D-05
 ErrMax= 2.30D-05  0.00D+00 EMaxC= 1.00D-01 BMatC= 2.06D-07 BMatP= 5.53D-07
 IDIUse=1 WtCom= 1.00D+00 WtEn= 0.00D+00
 Coeff-Com:  0.271D-01 0.375D+00 0.598D+00
 Coeff:      0.271D-01 0.375D+00 0.598D+00
 Gap=     0.157 Goal=   None    Shift=    0.000
 RMSDP=1.75D-06 MaxDP=5.69D-05 DE=-3.76D-07 OVMax= 1.70D-04

 Cycle  12  Pass 1  IDiag  1:
 RMSU=  6.80D-07    CP:  1.00D+00  1.01D+00  6.12D-01
 E= -1297.21945623962     Delta-E=       -0.000000218909 Rises=F Damp=F
 DIIS: error= 3.96D-06 at cycle   4 NSaved=   4.
 NSaved= 4 IEnMin= 4 EnMin= -1297.21945623962     IErMin= 4 ErrMin= 3.96D-06
 ErrMax= 3.96D-06  0.00D+00 EMaxC= 1.00D-01 BMatC= 1.14D-08 BMatP= 2.06D-07
 IDIUse=1 WtCom= 1.00D+00 WtEn= 0.00D+00
 Coeff-Com: -0.259D-02 0.203D+00 0.359D+00 0.441D+00
 Coeff:     -0.259D-02 0.203D+00 0.359D+00 0.441D+00
 Gap=     0.157 Goal=   None    Shift=    0.000
 RMSDP=3.93D-07 MaxDP=1.39D-05 DE=-2.19D-07 OVMax= 2.77D-05

 Cycle  13  Pass 1  IDiag  1:
 RMSU=  1.52D-07    CP:  1.00D+00  1.01D+00  6.32D-01  4.83D-01
 E= -1297.21945625109     Delta-E=       -0.000000011475 Rises=F Damp=F
 DIIS: error= 1.20D-06 at cycle   5 NSaved=   5.
 NSaved= 5 IEnMin= 5 EnMin= -1297.21945625109     IErMin= 5 ErrMin= 1.20D-06
 ErrMax= 1.20D-06  0.00D+00 EMaxC= 1.00D-01 BMatC= 3.82D-10 BMatP= 1.14D-08
 IDIUse=1 WtCom= 1.00D+00 WtEn= 0.00D+00
 Coeff-Com: -0.232D-02 0.112D+00 0.201D+00 0.267D+00 0.422D+00
 Coeff:     -0.232D-02 0.112D+00 0.201D+00 0.267D+00 0.422D+00
 Gap=     0.157 Goal=   None    Shift=    0.000
 RMSDP=8.25D-08 MaxDP=2.86D-06 DE=-1.15D-08 OVMax= 6.93D-06

 Cycle  14  Pass 1  IDiag  1:
 RMSU=  5.25D-08    CP:  1.00D+00  1.01D+00  6.32D-01  4.87D-01  5.82D-01
 E= -1297.21945625148     Delta-E=       -0.000000000385 Rises=F Damp=F
 DIIS: error= 2.68D-07 at cycle   6 NSaved=   6.
 NSaved= 6 IEnMin= 6 EnMin= -1297.21945625148     IErMin= 6 ErrMin= 2.68D-07
 ErrMax= 2.68D-07  0.00D+00 EMaxC= 1.00D-01 BMatC= 2.56D-11 BMatP= 3.82D-10
 IDIUse=1 WtCom= 1.00D+00 WtEn= 0.00D+00
 Coeff-Com: -0.114D-02 0.469D-01 0.844D-01 0.116D+00 0.241D+00 0.512D+00
 Coeff:     -0.114D-02 0.469D-01 0.844D-01 0.116D+00 0.241D+00 0.512D+00
 Gap=     0.157 Goal=   None    Shift=    0.000
 RMSDP=2.04D-08 MaxDP=9.59D-07 DE=-3.85D-10 OVMax= 1.96D-06

 Cycle  15  Pass 1  IDiag  1:
 RMSU=  1.56D-08    CP:  1.00D+00  1.01D+00  6.33D-01  4.88D-01  6.42D-01
                    CP:  8.24D-01
 E= -1297.21945625148     Delta-E=       -0.000000000001 Rises=F Damp=F
 DIIS: error= 5.70D-08 at cycle   7 NSaved=   7.
 NSaved= 7 IEnMin= 7 EnMin= -1297.21945625148     IErMin= 7 ErrMin= 5.70D-08
 ErrMax= 5.70D-08  0.00D+00 EMaxC= 1.00D-01 BMatC= 2.65D-12 BMatP= 2.56D-11
 IDIUse=1 WtCom= 1.00D+00 WtEn= 0.00D+00
 Coeff-Com: -0.154D-03 0.326D-02 0.623D-02 0.104D-01 0.421D-01 0.255D+00
 Coeff-Com:  0.683D+00
 Coeff:     -0.154D-03 0.326D-02 0.623D-02 0.104D-01 0.421D-01 0.255D+00
 Coeff:      0.683D+00
 Gap=     0.157 Goal=   None    Shift=    0.000
 RMSDP=8.40D-09 MaxDP=2.81D-07 DE=-9.09D-13 OVMax= 8.01D-07

 SCF Done:  E(RAPFD) =  -1297.21945625     A.U. after   15 cycles
            NFock= 15  Conv=0.84D-08     -V/T= 2.0073
 KE= 1.287855820656D+03 PE=-6.160714866873D+03 EE= 2.015607386939D+03
 Leave Link  502 at Fri Oct  4 16:39:11 2024, MaxMem=  2097152000 cpu:             382.9 elap:              24.1
 (Enter /uufs/chpc.utah.edu/sys/installdir/gaussian16/C01/AVX/g16/l601.exe)
 Copying SCF densities to generalized density rwf, IOpCl= 0 IROHF=0.

 **********************************************************************

            Population analysis using the SCF Density.

 **********************************************************************

 Orbital symmetries:
       Occupied  (A) (A) (A) (A) (A) (A) (A) (A) (A) (A) (A) (A)
                 (A) (A) (A) (A) (A) (A) (A) (A) (A) (A) (A) (A)
                 (A) (A) (A) (A) (A) (A) (A) (A) (A) (A) (A) (A)
                 (A) (A) (A) (A) (A) (A) (A) (A) (A) (A) (A) (A)
                 (A) (A) (A) (A) (A) (A) (A) (A) (A) (A) (A) (A)
                 (A) (A) (A) (A) (A) (A) (A) (A) (A) (A) (A) (A)
                 (A) (A) (A)
       Virtual   (A) (A) (A) (A) (A) (A) (A) (A) (A) (A) (A) (A)
                 (A) (A) (A) (A) (A) (A) (A) (A) (A) (A) (A) (A)
                 (A) (A) (A) (A) (A) (A) (A) (A) (A) (A) (A) (A)
                 (A) (A) (A) (A) (A) (A) (A) (A) (A) (A) (A) (A)
                 (A) (A) (A) (A) (A) (A) (A) (A) (A) (A) (A) (A)
                 (A) (A) (A) (A) (A) (A) (A) (A) (A) (A) (A) (A)
                 (A) (A) (A) (A) (A) (A) (A) (A) (A) (A) (A) (A)
                 (A) (A) (A) (A) (A) (A) (A) (A) (A) (A) (A) (A)
                 (A) (A) (A) (A) (A) (A) (A) (A) (A) (A) (A) (A)
                 (A) (A) (A) (A) (A) (A) (A) (A) (A) (A) (A) (A)
                 (A) (A) (A) (A) (A) (A) (A) (A) (A) (A) (A) (A)
                 (A) (A) (A) (A) (A) (A) (A) (A) (A) (A) (A) (A)
                 (A) (A) (A) (A) (A) (A) (A) (A) (A) (A) (A) (A)
                 (A) (A) (A) (A) (A) (A) (A) (A) (A) (A) (A) (A)
                 (A) (A) (A) (A) (A) (A) (A) (A) (A) (A) (A) (A)
                 (A) (A) (A) (A) (A) (A) (A) (A) (A) (A) (A) (A)
                 (A) (A) (A) (A) (A) (A) (A) (A) (A) (A) (A) (A)
                 (A) (A) (A) (A) (A) (A) (A) (A) (A) (A) (A) (A)
                 (A) (A) (A) (A) (A) (A) (A) (A) (A) (A) (A) (A)
                 (A) (A) (A) (A) (A) (A) (A) (A) (A) (A) (A) (A)
                 (A) (A) (A) (A) (A) (A) (A) (A) (A) (A) (A)
 The electronic state is 1-A.
 Alpha  occ. eigenvalues --  -89.22817 -24.78888 -19.20319 -19.20285 -14.43611
 Alpha  occ. eigenvalues --  -14.40468 -10.30250 -10.27313 -10.26835 -10.26160
 Alpha  occ. eigenvalues --  -10.25980 -10.25896 -10.25753 -10.25525 -10.24098
 Alpha  occ. eigenvalues --  -10.23405 -10.23204 -10.23031 -10.22274 -10.21050
 Alpha  occ. eigenvalues --   -8.20670  -6.15639  -6.15234  -6.15163  -1.28081
 Alpha  occ. eigenvalues --   -1.12350  -1.03985  -1.02710  -0.98768  -0.88822
 Alpha  occ. eigenvalues --   -0.85225  -0.83455  -0.82186  -0.77809  -0.75639
 Alpha  occ. eigenvalues --   -0.72818  -0.70707  -0.67807  -0.65660  -0.63969
 Alpha  occ. eigenvalues --   -0.60944  -0.59797  -0.59074  -0.54771  -0.54111
 Alpha  occ. eigenvalues --   -0.52494  -0.51610  -0.50913  -0.50505  -0.49732
 Alpha  occ. eigenvalues --   -0.48583  -0.47216  -0.46426  -0.45500  -0.44813
 Alpha  occ. eigenvalues --   -0.44266  -0.43562  -0.43086  -0.42788  -0.41927
 Alpha  occ. eigenvalues --   -0.41813  -0.41002  -0.38758  -0.37971  -0.36673
 Alpha  occ. eigenvalues --   -0.35904  -0.34414  -0.34120  -0.32378  -0.31662
 Alpha  occ. eigenvalues --   -0.30038  -0.29588  -0.29098  -0.24245  -0.22038
 Alpha virt. eigenvalues --   -0.06355  -0.04487  -0.02740   0.01202   0.01887
 Alpha virt. eigenvalues --    0.06030   0.07579   0.08375   0.10147   0.10591
 Alpha virt. eigenvalues --    0.10967   0.11283   0.12754   0.13667   0.14291
 Alpha virt. eigenvalues --    0.14889   0.15499   0.15841   0.17435   0.17825
 Alpha virt. eigenvalues --    0.17975   0.18729   0.21090   0.22217   0.23235
 Alpha virt. eigenvalues --    0.23969   0.24900   0.25701   0.28748   0.29775
 Alpha virt. eigenvalues --    0.31772   0.32263   0.34616   0.34883   0.35428
 Alpha virt. eigenvalues --    0.36732   0.38968   0.40418   0.40873   0.43653
 Alpha virt. eigenvalues --    0.46012   0.46513   0.47996   0.48966   0.49829
 Alpha virt. eigenvalues --    0.52621   0.52833   0.53298   0.54211   0.55229
 Alpha virt. eigenvalues --    0.55533   0.55859   0.56948   0.57477   0.58459
 Alpha virt. eigenvalues --    0.58654   0.59246   0.59785   0.60499   0.60902
 Alpha virt. eigenvalues --    0.61929   0.62793   0.63517   0.64125   0.65063
 Alpha virt. eigenvalues --    0.66505   0.67565   0.70665   0.71200   0.71884
 Alpha virt. eigenvalues --    0.73225   0.74991   0.77567   0.77802   0.79716
 Alpha virt. eigenvalues --    0.79849   0.81230   0.81417   0.82191   0.82721
 Alpha virt. eigenvalues --    0.83237   0.83869   0.84173   0.84326   0.85503
 Alpha virt. eigenvalues --    0.86231   0.86373   0.87386   0.87734   0.88182
 Alpha virt. eigenvalues --    0.89543   0.90797   0.91810   0.92808   0.93992
 Alpha virt. eigenvalues --    0.95520   0.96115   0.97074   0.98339   1.00200
 Alpha virt. eigenvalues --    1.01150   1.01763   1.02446   1.03239   1.03764
 Alpha virt. eigenvalues --    1.06135   1.06692   1.07437   1.10122   1.10225
 Alpha virt. eigenvalues --    1.11633   1.14460   1.17333   1.17489   1.18645
 Alpha virt. eigenvalues --    1.19849   1.22364   1.23849   1.25145   1.26999
 Alpha virt. eigenvalues --    1.28853   1.29418   1.31371   1.31942   1.32522
 Alpha virt. eigenvalues --    1.33167   1.34984   1.36430   1.37846   1.39334
 Alpha virt. eigenvalues --    1.40823   1.43127   1.44078   1.45220   1.45529
 Alpha virt. eigenvalues --    1.46112   1.47841   1.48434   1.49462   1.51011
 Alpha virt. eigenvalues --    1.54106   1.54747   1.58965   1.59808   1.63071
 Alpha virt. eigenvalues --    1.66224   1.69520   1.73876   1.74473   1.75830
 Alpha virt. eigenvalues --    1.77405   1.78522   1.79203   1.79800   1.80398
 Alpha virt. eigenvalues --    1.81066   1.81750   1.83269   1.83826   1.83885
 Alpha virt. eigenvalues --    1.85290   1.86096   1.87283   1.87949   1.90582
 Alpha virt. eigenvalues --    1.90970   1.93706   1.95525   1.96457   1.96510
 Alpha virt. eigenvalues --    1.97092   1.98498   2.00139   2.01390   2.04276
 Alpha virt. eigenvalues --    2.05444   2.07366   2.09715   2.10063   2.11286
 Alpha virt. eigenvalues --    2.13183   2.14525   2.15502   2.18164   2.18602
 Alpha virt. eigenvalues --    2.18823   2.19066   2.20456   2.21735   2.23347
 Alpha virt. eigenvalues --    2.23820   2.26800   2.27720   2.28649   2.30095
 Alpha virt. eigenvalues --    2.30503   2.31126   2.34019   2.36111   2.37596
 Alpha virt. eigenvalues --    2.41262   2.42053   2.46316   2.48696   2.53560
 Alpha virt. eigenvalues --    2.56496   2.58185   2.60213   2.61401   2.63450
 Alpha virt. eigenvalues --    2.64259   2.66709   2.68700   2.69792   2.71397
 Alpha virt. eigenvalues --    2.74066   2.77766   2.80183   2.81189   2.82219
 Alpha virt. eigenvalues --    2.85192   2.86288   2.90251   2.93144   2.96863
 Alpha virt. eigenvalues --    2.97714   3.11363   3.15253   3.29033   3.31160
 Alpha virt. eigenvalues --    3.45761   3.78143   3.89671   3.96457   4.03795
 Alpha virt. eigenvalues --    4.06867   4.09004   4.11766   4.14328   4.15785
 Alpha virt. eigenvalues --    4.17118   4.21612   4.26118   4.29179   4.33958
 Alpha virt. eigenvalues --    4.40678   4.46146   4.49528   4.58213   4.63774
 Alpha virt. eigenvalues --    4.81591
          Condensed to atoms (all electrons):
               1          2          3          4          5          6
     1  C    5.052296   0.272980  -0.047035   0.006679   0.006538  -0.044575
     2  N    0.272980   6.958455   0.379871  -0.085477  -0.041179   0.302423
     3  C   -0.047035   0.379871   4.875939   0.552774  -0.027202  -0.108485
     4  C    0.006679  -0.085477   0.552774   5.106204   0.477411  -0.051664
     5  C    0.006538  -0.041179  -0.027202   0.477411   4.678901   0.509527
     6  C   -0.044575   0.302423  -0.108485  -0.051664   0.509527   4.673138
     7  C   -0.002587  -0.089724   0.003859   0.014390  -0.056188   0.489897
     8  C   -0.000101   0.005472  -0.000011   0.000121  -0.035563  -0.014629
     9  C    0.000009  -0.000394  -0.000244   0.005592  -0.010765  -0.028664
    10  C   -0.000000  -0.000003   0.000003  -0.000152   0.004129   0.000895
    11  C    0.000000   0.000000  -0.000000  -0.000002   0.000436  -0.000004
    12  C   -0.000000   0.000000   0.000000  -0.000000  -0.000007   0.000000
    13  C    0.000000  -0.000000  -0.000000  -0.000000  -0.000000   0.000000
    14  S    0.000000  -0.000000  -0.000000   0.000000   0.000000  -0.000000
    15  F    0.000000   0.000000   0.000000  -0.000000  -0.000000  -0.000000
    16  O    0.000000  -0.000000  -0.000000   0.000000   0.000000  -0.000000
    17  O    0.000000   0.000000  -0.000000   0.000000  -0.000000  -0.000000
    18  N   -0.000000   0.000000   0.000000  -0.000000  -0.000000   0.000000
    19  C   -0.000000   0.000000   0.000000   0.000000  -0.000117   0.000011
    20  C   -0.000190   0.012880   0.009858  -0.086734   0.477268  -0.048676
    21  H    0.382072  -0.030400  -0.001975  -0.000027  -0.000012   0.002609
    22  H    0.379055  -0.044719   0.001448  -0.000020  -0.000142  -0.001590
    23  H    0.379090  -0.044765   0.001443  -0.000049  -0.000059  -0.001683
    24  H   -0.002821  -0.044115   0.368434  -0.025278   0.000924   0.005927
    25  H   -0.000115   0.003683  -0.043160   0.368487  -0.031052   0.007231
    26  H    0.003551  -0.006238  -0.000134  -0.000207   0.003552  -0.034020
    27  H   -0.000000  -0.000092   0.000003   0.000008   0.000803   0.002111
    28  H    0.000000  -0.000000  -0.000000  -0.000003   0.000076  -0.000002
    29  H    0.000000   0.000000  -0.000000   0.000000   0.000000   0.000000
    30  H    0.000000  -0.000000   0.000000   0.000000   0.000000  -0.000005
    31  H    0.000003  -0.000100  -0.000168  -0.004981  -0.031791   0.004932
               7          8          9         10         11         12
     1  C   -0.002587  -0.000101   0.000009  -0.000000   0.000000  -0.000000
     2  N   -0.089724   0.005472  -0.000394  -0.000003   0.000000   0.000000
     3  C    0.003859  -0.000011  -0.000244   0.000003  -0.000000   0.000000
     4  C    0.014390   0.000121   0.005592  -0.000152  -0.000002  -0.000000
     5  C   -0.056188  -0.035563  -0.010765   0.004129   0.000436  -0.000007
     6  C    0.489897  -0.014629  -0.028664   0.000895  -0.000004   0.000000
     7  C    5.074923   0.509286  -0.022270   0.005340  -0.000136   0.000001
     8  C    0.509286   5.024911   0.508016  -0.043632   0.005943  -0.000188
     9  C   -0.022270   0.508016   4.801093   0.340179  -0.051558   0.006887
    10  C    0.005340  -0.043632   0.340179   4.895530   0.512571  -0.013826
    11  C   -0.000136   0.005943  -0.051558   0.512571   5.011491   0.489404
    12  C    0.000001  -0.000188   0.006887  -0.013826   0.489404   4.982490
    13  C   -0.000000   0.000016   0.000725  -0.035265  -0.039870   0.457983
    14  S   -0.000000   0.000000  -0.000008   0.000162   0.001437  -0.022326
    15  F    0.000000  -0.000000   0.000000  -0.000003  -0.000014   0.000815
    16  O   -0.000000  -0.000000  -0.000000   0.000003   0.000056   0.000026
    17  O    0.000000   0.000000  -0.000000  -0.000000   0.000092   0.000192
    18  N   -0.000001   0.000080   0.005364  -0.009351  -0.043467  -0.023346
    19  C    0.000186  -0.010255  -0.032048   0.445250  -0.058304  -0.037090
    20  C   -0.063616  -0.049401   0.498901  -0.040199  -0.011573   0.000250
    21  H    0.000010   0.000002  -0.000000  -0.000000   0.000000  -0.000000
    22  H    0.002627   0.000007  -0.000001   0.000000  -0.000000  -0.000000
    23  H    0.002496   0.000012  -0.000002   0.000000   0.000000   0.000000
    24  H   -0.000088   0.000002   0.000003  -0.000000  -0.000000   0.000000
    25  H   -0.000125   0.000000  -0.000057   0.000002  -0.000000  -0.000000
    26  H    0.357183  -0.032543   0.002360  -0.000134   0.000001  -0.000000
    27  H   -0.034359   0.358700  -0.036865  -0.007389  -0.000009  -0.000006
    28  H   -0.000006  -0.000010  -0.007801  -0.038370   0.366307  -0.042683
    29  H   -0.000000   0.000001  -0.000053   0.003364  -0.029638   0.360623
    30  H   -0.000047   0.004763  -0.002032  -0.062617   0.004137   0.000254
    31  H    0.000282   0.004943  -0.042784  -0.008002   0.004529  -0.000000
              13         14         15         16         17         18
     1  C    0.000000   0.000000   0.000000   0.000000   0.000000  -0.000000
     2  N   -0.000000  -0.000000   0.000000  -0.000000   0.000000   0.000000
     3  C   -0.000000  -0.000000   0.000000  -0.000000  -0.000000   0.000000
     4  C   -0.000000   0.000000  -0.000000   0.000000   0.000000  -0.000000
     5  C   -0.000000   0.000000  -0.000000   0.000000  -0.000000  -0.000000
     6  C    0.000000  -0.000000  -0.000000  -0.000000  -0.000000   0.000000
     7  C   -0.000000  -0.000000   0.000000  -0.000000   0.000000  -0.000001
     8  C    0.000016   0.000000  -0.000000  -0.000000   0.000000   0.000080
     9  C    0.000725  -0.000008   0.000000  -0.000000  -0.000000   0.005364
    10  C   -0.035265   0.000162  -0.000003   0.000003  -0.000000  -0.009351
    11  C   -0.039870   0.001437  -0.000014   0.000056   0.000092  -0.043467
    12  C    0.457983  -0.022326   0.000815   0.000026   0.000192  -0.023346
    13  C    5.306301   0.197085  -0.030301  -0.057098  -0.056372   0.350840
    14  S    0.197085  13.468025   0.218218   0.455224   0.452964  -0.021699
    15  F   -0.030301   0.218218   9.146787  -0.035795  -0.035588   0.003964
    16  O   -0.057098   0.455224  -0.035795   8.166316  -0.041720  -0.000141
    17  O   -0.056372   0.452964  -0.035588  -0.041720   8.168031   0.000230
    18  N    0.350840  -0.021699   0.003964  -0.000141   0.000230   6.797552
    19  C   -0.071384   0.000159   0.000175  -0.000134  -0.000116   0.426875
    20  C   -0.000013   0.000000   0.000000   0.000000  -0.000000  -0.000089
    21  H    0.000000   0.000000   0.000000   0.000000   0.000000  -0.000000
    22  H    0.000000  -0.000000   0.000000   0.000000   0.000000   0.000000
    23  H   -0.000000  -0.000000   0.000000   0.000000   0.000000  -0.000000
    24  H   -0.000000   0.000000   0.000000  -0.000000   0.000000  -0.000000
    25  H   -0.000000   0.000000  -0.000000   0.000000  -0.000000  -0.000000
    26  H    0.000000   0.000000   0.000000   0.000000  -0.000000  -0.000000
    27  H    0.000001  -0.000000   0.000000  -0.000000   0.000000  -0.000017
    28  H    0.005543  -0.000035   0.000000   0.000001   0.000001  -0.000075
    29  H   -0.036153   0.001956   0.000009   0.000197   0.000594   0.003614
    30  H    0.006590  -0.000184   0.000003   0.000000   0.000000  -0.050661
    31  H    0.000001   0.000000   0.000000   0.000000  -0.000000  -0.000004
              19         20         21         22         23         24
     1  C   -0.000000  -0.000190   0.382072   0.379055   0.379090  -0.002821
     2  N    0.000000   0.012880  -0.030400  -0.044719  -0.044765  -0.044115
     3  C    0.000000   0.009858  -0.001975   0.001448   0.001443   0.368434
     4  C    0.000000  -0.086734  -0.000027  -0.000020  -0.000049  -0.025278
     5  C   -0.000117   0.477268  -0.000012  -0.000142  -0.000059   0.000924
     6  C    0.000011  -0.048676   0.002609  -0.001590  -0.001683   0.005927
     7  C    0.000186  -0.063616   0.000010   0.002627   0.002496  -0.000088
     8  C   -0.010255  -0.049401   0.000002   0.000007   0.000012   0.000002
     9  C   -0.032048   0.498901  -0.000000  -0.000001  -0.000002   0.000003
    10  C    0.445250  -0.040199  -0.000000   0.000000   0.000000  -0.000000
    11  C   -0.058304  -0.011573   0.000000  -0.000000   0.000000  -0.000000
    12  C   -0.037090   0.000250  -0.000000  -0.000000   0.000000   0.000000
    13  C   -0.071384  -0.000013   0.000000   0.000000  -0.000000  -0.000000
    14  S    0.000159   0.000000   0.000000  -0.000000  -0.000000   0.000000
    15  F    0.000175   0.000000   0.000000   0.000000   0.000000   0.000000
    16  O   -0.000134   0.000000   0.000000   0.000000   0.000000  -0.000000
    17  O   -0.000116  -0.000000   0.000000   0.000000   0.000000   0.000000
    18  N    0.426875  -0.000089  -0.000000   0.000000  -0.000000  -0.000000
    19  C    4.947564   0.004242   0.000000   0.000000   0.000000   0.000000
    20  C    0.004242   5.211153   0.000006  -0.000009  -0.000002  -0.000136
    21  H    0.000000   0.000006   0.494253  -0.024178  -0.024355   0.003808
    22  H    0.000000  -0.000009  -0.024178   0.521385  -0.036291   0.000014
    23  H    0.000000  -0.000002  -0.024355  -0.036291   0.521531   0.000016
    24  H    0.000000  -0.000136   0.003808   0.000014   0.000016   0.497671
    25  H    0.000000  -0.005471  -0.000011   0.000004   0.000004  -0.000562
    26  H   -0.000003   0.000582  -0.000045   0.000538   0.000463  -0.000000
    27  H    0.003982   0.004777  -0.000000   0.000000  -0.000000  -0.000000
    28  H    0.005113   0.004971  -0.000000  -0.000000   0.000000  -0.000000
    29  H    0.000180  -0.000004   0.000000   0.000000  -0.000000  -0.000000
    30  H    0.381246  -0.000048  -0.000000   0.000000  -0.000000  -0.000000
    31  H    0.000012   0.350707  -0.000000   0.000000  -0.000000  -0.000002
              25         26         27         28         29         30
     1  C   -0.000115   0.003551  -0.000000   0.000000   0.000000   0.000000
     2  N    0.003683  -0.006238  -0.000092  -0.000000   0.000000  -0.000000
     3  C   -0.043160  -0.000134   0.000003  -0.000000  -0.000000   0.000000
     4  C    0.368487  -0.000207   0.000008  -0.000003   0.000000   0.000000
     5  C   -0.031052   0.003552   0.000803   0.000076   0.000000   0.000000
     6  C    0.007231  -0.034020   0.002111  -0.000002   0.000000  -0.000005
     7  C   -0.000125   0.357183  -0.034359  -0.000006  -0.000000  -0.000047
     8  C    0.000000  -0.032543   0.358700  -0.000010   0.000001   0.004763
     9  C   -0.000057   0.002360  -0.036865  -0.007801  -0.000053  -0.002032
    10  C    0.000002  -0.000134  -0.007389  -0.038370   0.003364  -0.062617
    11  C   -0.000000   0.000001  -0.000009   0.366307  -0.029638   0.004137
    12  C   -0.000000  -0.000000  -0.000006  -0.042683   0.360623   0.000254
    13  C   -0.000000   0.000000   0.000001   0.005543  -0.036153   0.006590
    14  S    0.000000   0.000000  -0.000000  -0.000035   0.001956  -0.000184
    15  F   -0.000000   0.000000   0.000000   0.000000   0.000009   0.000003
    16  O    0.000000   0.000000  -0.000000   0.000001   0.000197   0.000000
    17  O   -0.000000  -0.000000   0.000000   0.000001   0.000594   0.000000
    18  N   -0.000000  -0.000000  -0.000017  -0.000075   0.003614  -0.050661
    19  C    0.000000  -0.000003   0.003982   0.005113   0.000180   0.381246
    20  C   -0.005471   0.000582   0.004777   0.004971  -0.000004  -0.000048
    21  H   -0.000011  -0.000045  -0.000000  -0.000000   0.000000  -0.000000
    22  H    0.000004   0.000538   0.000000  -0.000000   0.000000   0.000000
    23  H    0.000004   0.000463  -0.000000   0.000000  -0.000000  -0.000000
    24  H   -0.000562  -0.000000  -0.000000  -0.000000  -0.000000  -0.000000
    25  H    0.528246   0.000003  -0.000000   0.000001   0.000000   0.000000
    26  H    0.000003   0.535102  -0.003990   0.000000   0.000000   0.000004
    27  H   -0.000000  -0.003990   0.537498   0.000000   0.000000   0.002442
    28  H    0.000001   0.000000   0.000000   0.509730  -0.004767  -0.000132
    29  H    0.000000   0.000000   0.000000  -0.004767   0.477864   0.000021
    30  H    0.000000   0.000004   0.002442  -0.000132   0.000021   0.519893
    31  H    0.002588   0.000017  -0.000153   0.002250   0.000004   0.000004
              31
     1  C    0.000003
     2  N   -0.000100
     3  C   -0.000168
     4  C   -0.004981
     5  C   -0.031791
     6  C    0.004932
     7  C    0.000282
     8  C    0.004943
     9  C   -0.042784
    10  C   -0.008002
    11  C    0.004529
    12  C   -0.000000
    13  C    0.000001
    14  S    0.000000
    15  F    0.000000
    16  O    0.000000
    17  O   -0.000000
    18  N   -0.000004
    19  C    0.000012
    20  C    0.350707
    21  H   -0.000000
    22  H    0.000000
    23  H   -0.000000
    24  H   -0.000002
    25  H    0.002588
    26  H    0.000017
    27  H   -0.000153
    28  H    0.002250
    29  H    0.000004
    30  H    0.000004
    31  H    0.547167
 Mulliken charges:
               1
     1  C   -0.384847
     2  N   -0.548558
     3  C    0.034783
     4  C   -0.277072
     5  C    0.074511
     6  C    0.335296
     7  C   -0.191333
     8  C   -0.235941
     9  C    0.066420
    10  C    0.051514
    11  C   -0.161829
    12  C   -0.159452
    13  C    0.001372
    14  S    1.249021
    15  F   -0.268270
    16  O   -0.486936
    17  O   -0.488308
    18  N   -0.439667
    19  C   -0.005543
    20  C   -0.269434
    21  H    0.198243
    22  H    0.201870
    23  H    0.202151
    24  H    0.196204
    25  H    0.170304
    26  H    0.173957
    27  H    0.172554
    28  H    0.199889
    29  H    0.222188
    30  H    0.196368
    31  H    0.170546
 Sum of Mulliken charges =  -0.00000
 Mulliken charges with hydrogens summed into heavy atoms:
               1
     1  C    0.217417
     2  N   -0.548558
     3  C    0.230987
     4  C   -0.106768
     5  C    0.074511
     6  C    0.335296
     7  C   -0.017376
     8  C   -0.063387
     9  C    0.066420
    10  C    0.051514
    11  C    0.038061
    12  C    0.062736
    13  C    0.001372
    14  S    1.249021
    15  F   -0.268270
    16  O   -0.486936
    17  O   -0.488308
    18  N   -0.439667
    19  C    0.190825
    20  C   -0.098888
 Electronic spatial extent (au):  <R**2>=           9795.4544
 Charge=             -0.0000 electrons
 Dipole moment (field-independent basis, Debye):
    X=            -10.5317    Y=             -0.2840    Z=              0.7113  Tot=             10.5595
 Quadrupole moment (field-independent basis, Debye-Ang):
   XX=           -117.9921   YY=           -110.8228   ZZ=           -126.3950
   XY=              3.8426   XZ=              2.0375   YZ=              1.9719
 Traceless Quadrupole moment (field-independent basis, Debye-Ang):
   XX=              0.4112   YY=              7.5805   ZZ=             -7.9917
   XY=              3.8426   XZ=              2.0375   YZ=              1.9719
 Octapole moment (field-independent basis, Debye-Ang**2):
  XXX=           -400.7987  YYY=             -2.2033  ZZZ=             -7.4644  XYY=             -6.5037
  XXY=            -43.8026  XXZ=            -16.4279  XZZ=             17.8342  YZZ=             -4.7726
  YYZ=              4.1664  XYZ=             15.4375
 Hexadecapole moment (field-independent basis, Debye-Ang**3):
 XXXX=         -10248.1458 YYYY=           -848.4793 ZZZZ=           -311.4963 XXXY=            -44.5257
 XXXZ=            -18.6260 YYYX=             -9.7761 YYYZ=              5.6899 ZZZX=            -42.2619
 ZZZY=             12.4851 XXYY=          -1947.7173 XXZZ=          -2074.8684 YYZZ=           -205.3431
 XXYZ=              9.5529 YYXZ=             25.0485 ZZXY=             -2.3316
 N-N= 1.560032203026D+03 E-N=-6.160714860386D+03  KE= 1.287855820656D+03
 No NMR shielding tensors so no spin-rotation constants.
 Leave Link  601 at Fri Oct  4 16:39:11 2024, MaxMem=  2097152000 cpu:               2.6 elap:               0.2
 (Enter /uufs/chpc.utah.edu/sys/installdir/gaussian16/C01/AVX/g16/l701.exe)
 ... and contract with generalized density number  0.
 Compute integral first derivatives.
 R6APFD:  NTU= -4 IXU= 1 FactS= 1.050
 R6Disp: Adding Petersson-Frisch dispersion energy 1st derivatives to the gradient.
 Leave Link  701 at Fri Oct  4 16:39:11 2024, MaxMem=  2097152000 cpu:               2.9 elap:               0.2
 (Enter /uufs/chpc.utah.edu/sys/installdir/gaussian16/C01/AVX/g16/l702.exe)
 L702 exits ... SP integral derivatives will be done elsewhere.
 Leave Link  702 at Fri Oct  4 16:39:11 2024, MaxMem=  2097152000 cpu:               0.6 elap:               0.0
 (Enter /uufs/chpc.utah.edu/sys/installdir/gaussian16/C01/AVX/g16/l703.exe)
 Integral derivatives from FoFJK, PRISM(SPDF).
 Compute integral first derivatives, UseDBF=F ICtDFT=           0.
 Calling FoFJK, ICntrl=      2127 FMM=F ISym2X=0 I1Cent= 0 IOpClX= 0 NMat=1 NMatS=1 NMatT=0.
 FoFJK:  IHMeth= 1 ICntrl=    2127 DoSepK=F KAlg= 0 I1Cent=           0 FoldK=F
 IRaf=         0 NMat=       1 IRICut=       1 DoRegI=T DoRafI=F ISym2E= 0 IDoP0=0 IntGTp=1.
 FoFCou: FMM=F IPFlag=           0 FMFlag=      100000 FMFlg1=         800
         NFxFlg=           0 DoJE=F BraDBF=F KetDBF=F FulRan=T
         wScrn=  0.000000 ICntrl=      2127 IOpCl=  0 I1Cent=           0 NGrid=           0
         NMat0=    1 NMatS0=      1 NMatT0=    0 NMatD0=    1 NMtDS0=    0 NMtDT0=    0
 Symmetry not used in FoFCou.
 Leave Link  703 at Fri Oct  4 16:39:18 2024, MaxMem=  2097152000 cpu:             103.4 elap:               6.5
 (Enter /uufs/chpc.utah.edu/sys/installdir/gaussian16/C01/AVX/g16/l716.exe)
 Dipole        =-4.14350133D+00-1.11727914D-01 2.79843016D-01
 ***** Axes restored to original set *****
 -------------------------------------------------------------------
 Center     Atomic                   Forces (Hartrees/Bohr)
 Number     Number              X              Y              Z
 -------------------------------------------------------------------
      1        6           0.008527497   -0.003668224    0.000050398
      2        7          -0.015568865   -0.003204654   -0.000073672
      3        6           0.018800775   -0.013003587    0.000372547
      4        6           0.002174533    0.015606222   -0.000588622
      5        6           0.025148073   -0.008147230    0.000781931
      6        6          -0.018401326    0.000613940   -0.000161612
      7        6           0.010834016   -0.005777409   -0.000077077
      8        6          -0.022181614    0.002266916   -0.001986530
      9        6           0.005460122    0.017808840    0.000029584
     10        6           0.004615852    0.004475382    0.003270758
     11        6           0.001396537   -0.000550332   -0.001612459
     12        6          -0.000066162    0.004908872    0.001530808
     13        6          -0.039136840   -0.018430330   -0.025043830
     14       16           0.031228997    0.007052650    0.012440142
     15        9          -0.012865586    0.003668434   -0.001131196
     16        8          -0.005331571   -0.004417385    0.004188344
     17        8          -0.000731427    0.001520805   -0.004786016
     18        7           0.003897484    0.027161459    0.016333454
     19        6           0.013073166   -0.019124641   -0.006094600
     20        6          -0.000944801   -0.001786871    0.001059475
     21        1           0.000516247   -0.001961092    0.000019844
     22        1          -0.005748693   -0.000782948   -0.000800800
     23        1          -0.005814908   -0.000772756    0.000680282
     24        1          -0.000689679   -0.001573016    0.000136164
     25        1           0.000436877   -0.000153777   -0.000028355
     26        1          -0.000424827   -0.000853221    0.000563703
     27        1           0.002183194    0.000679444    0.000558495
     28        1          -0.002138889   -0.000903396   -0.000472220
     29        1           0.000298575   -0.000532809    0.000813994
     30        1          -0.000605645    0.001924494    0.000730914
     31        1           0.002058886   -0.002043781   -0.000703850
 -------------------------------------------------------------------
 Cartesian Forces:  Max     0.039136840 RMS     0.009773073
 Leave Link  716 at Fri Oct  4 16:39:18 2024, MaxMem=  2097152000 cpu:               0.7 elap:               0.1
[...]
   67      -9.8192      -10.2633       0.4441       -10.6462       0.8270
   69      -0.2000       -1.9590       1.7590        -0.3521       0.1521
   70     -38.2514      -42.1028       3.8513       -40.5240       2.2726
   71      -6.7028       -5.8896      -0.8132        -7.5037       0.8009
   72      10.3396      -22.3039      32.6435       -23.0870      33.4266
   73      -4.8219      -37.5367      32.7148       -40.3001      35.4782
   74      -8.0353      -41.7950      33.7597       -42.0423      34.0069
   75       1.4364        0.8431       0.5932         1.7315      -0.2951
 Sum      120.6194     -269.8242     390.4436      -279.6848     400.3042

 Contributions to Isotropic shielding for atom   18 (   -49.0099 ppm):
                         Standard Origin              Atomic Origin
 NLMO      Total    Paramagnetic  Diamagnetic   Paramagnetic  Diamagnetic
   24      -0.3267       -0.1058      -0.2209        -1.3094       0.9826
   25       6.1617        4.6020       1.5596         2.8166       3.3451
   26      -6.0939       -6.5610       0.4671        -6.6274       0.5335
   27       0.1633       -0.4092       0.5726        -1.1652       1.3285
   29       0.5872       -1.4733       2.0604        -0.1896       0.7768
   30      -0.4060       -5.0943       4.6883        -3.4018       2.9958
   31      -0.7523       -0.9872       0.2349        -1.2844       0.5321
   32      -1.4143       -1.4438       0.0296        -2.3237       0.9095
   33     -52.6930      -70.2715      17.5785       -64.4255      11.7325
   34       2.5186       -0.2323       2.7509         0.8729       1.6457
   35       1.8607       -0.7739       2.6346         0.2272       1.6334
   36      -0.3735       -1.6747       1.3012        -0.9651       0.5916
   37     -52.7626      -76.1808      23.4183       -64.9633      12.2008
   38      -7.0802      -26.3105      19.2303       -26.8183      19.7381
   39      -3.0478       -4.3667       1.3189        -4.1474       1.0996
   62     239.6605        0.0133     239.6472         0.0362     239.6243
   69      -0.7533        0.3955      -1.1488        -0.1249      -0.6285
   70      -0.8759       -1.6499       0.7741        -1.1217       0.2458
   71      -0.1871       -1.0706       0.8835        -0.9049       0.7178
   73      -1.8019       -2.6857       0.8838        -2.2232       0.4213
   75    -167.4296     -180.1158      12.6862      -197.5336      30.1040
 Sum      -45.0462     -376.3963     331.3501      -375.5765     330.5303

 Contributions to Isotropic shielding for atom   19 (    50.1920 ppm):
                         Standard Origin              Atomic Origin
 NLMO      Total    Paramagnetic  Diamagnetic   Paramagnetic  Diamagnetic
   21      -1.3536       -1.8233       0.4697        -1.8998       0.5462
   23      -0.6787       -1.3640       0.6853        -1.5689       0.8902
   24      -1.9642       -1.9797       0.0154        -2.3178       0.3535
   25      -1.1949       -4.0714       2.8765        -4.7507       3.5558
   26     -50.8608      -63.4898      12.6290       -60.0617       9.2009
   27      -0.1691       -0.6807       0.5116        -1.3964       1.2273
   29       0.2603       -1.3518       1.6121        -0.9799       1.2402
   30       4.8008        1.2702       3.5306         1.7326       3.0682
   33       1.2595       -1.1859       2.4453        -0.4251       1.6845
   34       1.0275       -0.3874       1.4149        -0.1838       1.2113
   35       0.8385       -0.4418       1.2803        -0.2904       1.1289
   37     -48.8164      -51.4432       2.6268       -54.1251       5.3087
   38       2.3339      -12.0675      14.4014       -11.8708      14.2047
   39     -44.4290      -55.4144      10.9855       -56.5017      12.0727
   63     203.2524        0.0010     203.2514        -0.0065     203.2590
   65      -0.1721       -0.7796       0.6076        -1.0219       0.8499
   75      -8.5037       -9.4689       0.9652        -9.6560       1.1522
 Sum       55.6305     -204.6782     260.3087      -205.3239     260.9544

 Contributions to Isotropic shielding for atom   20 (    77.2170 ppm):
                         Standard Origin              Atomic Origin
 NLMO      Total    Paramagnetic  Diamagnetic   Paramagnetic  Diamagnetic
    5       0.3617       -1.2320       1.5937        -0.6949       1.0566
    8      -0.4951       -1.2818       0.7867        -0.9765       0.4814
   11      -1.3612       -0.9096      -0.4516        -1.2355      -0.1256
   12      -0.5921       -1.6434       1.0513        -1.3192       0.7271
   14     -41.0288      -49.6036       8.5748       -53.1667      12.1379
   15       0.6155       -0.9706       1.5861        -0.4290       1.0445
   16      -0.1733       -0.9873       0.8140        -1.6008       1.4274
   17       4.1299        2.4019       1.7280         1.4315       2.6985
   19      -2.1845       -1.9018      -0.2827        -2.3972       0.2127
   20      -0.3736       -1.0427       0.6692        -0.7544       0.3809
   21      -1.3529       -1.7454       0.3925        -1.7009       0.3480
   22     -45.1931      -58.7982      13.6051       -55.4510      10.2579
   23       0.3214      -14.2764      14.5978       -14.3446      14.6660
   24      -0.2015       -0.1626      -0.0388        -1.0054       0.8039
   25      -1.0544       -1.4285       0.3741        -2.3845       1.3301
   40     -35.9615      -48.3942      12.4327       -48.2116      12.2501
   64     203.3000       -0.0084     203.3084        -0.0090     203.3090
   65      -0.0314       -4.8576       4.8262        -3.5291       3.4976
 Sum       78.7253     -186.8421     265.5675      -187.7787     266.5041

 Contributions to Isotropic shielding for atom   21 (    28.5907 ppm):
                         Standard Origin              Atomic Origin
 NLMO      Total    Paramagnetic  Diamagnetic   Paramagnetic  Diamagnetic
    1      -1.0842       -0.2070      -0.8773        -1.6033       0.5190
    2      26.2773        0.8780      25.3993         2.5407      23.7367
    3       1.3683        1.6457      -0.2774        -0.5320       1.9003
    4       1.3867        1.5922      -0.2055        -0.5053       1.8920
    5      -2.2243        1.8130      -4.0373        -3.4408       1.2165
    6       0.2742       -0.7497       1.0240         0.0196       0.2546
    8       0.1945       -0.9248       1.1193         0.2777      -0.0832
   41       1.7667        1.1305       0.6362         1.8031      -0.0365
   65      -0.1206        0.8182      -0.9388        -1.0064       0.8858
 Sum       27.8386        5.9961      21.8425        -2.4466      30.2852

 Contributions to Isotropic shielding for atom   22 (    28.3935 ppm):
                         Standard Origin              Atomic Origin
 NLMO      Total    Paramagnetic  Diamagnetic   Paramagnetic  Diamagnetic
    1       1.8516       -1.4283       3.2799         1.4578       0.3939
    2       1.0023        3.1914      -2.1891        -0.9663       1.9686
    3      26.2529        2.4160      23.8369         2.6257      23.6272
    4       1.6632        0.2272       1.4360        -0.2472       1.9104
    5      -0.6847        0.4207      -1.1054        -0.8961       0.2114
    6       0.0333       -0.2881       0.3214        -1.0834       1.1167
    7      -1.9075       -1.4872      -0.4203        -3.0932       1.1857
    8       0.2936       -0.8295       1.1231        -0.1235       0.4171
    9       0.4213       -0.7045       1.1259        -0.0822       0.5036
   15      -0.8494        0.6414      -1.4908        -1.6685       0.8191
 Sum       28.0766        2.1591      25.9176        -4.0771      32.1537

 Contributions to Isotropic shielding for atom   23 (    28.3845 ppm):
                         Standard Origin              Atomic Origin
 NLMO      Total    Paramagnetic  Diamagnetic   Paramagnetic  Diamagnetic
    1       1.8877       -1.4569       3.3446         1.4968       0.3910
    2       1.0019        3.1569      -2.1550        -0.9661       1.9680
    3       1.6359        0.2422       1.3937        -0.2570       1.8929
    4      26.2657        2.4576      23.8082         2.6406      23.6251
    5      -0.6694        0.4292      -1.0986        -0.8927       0.2233
    6       0.0569       -0.2839       0.3408        -1.0581       1.1150
    7      -1.9076       -1.5063      -0.4013        -3.1051       1.1975
    8       0.2962       -0.8321       1.1282        -0.1212       0.4173
    9       0.4209       -0.7136       1.1346        -0.0817       0.5027
   15      -0.8395        0.6423      -1.4818        -1.6551       0.8156
 Sum       28.1487        2.1353      26.0134        -3.9996      32.1483

 Contributions to Isotropic shielding for atom   24 (    25.3362 ppm):
                         Standard Origin              Atomic Origin
 NLMO      Total    Paramagnetic  Diamagnetic   Paramagnetic  Diamagnetic
    1      -1.0468        0.6593      -1.7061        -1.8827       0.8359
    2       0.2201       -2.2045       2.4245        -0.3512       0.5713
    5      -3.7537       -0.4517      -3.3020        -3.4671      -0.2867
    6       0.6152       -0.7045       1.3197        -0.1473       0.7625
    7       1.4236        0.3311       1.0925         0.7667       0.6569
    8      -2.7205       -2.4956      -0.2249        -3.4577       0.7372
    9      -0.1783       -0.5249       0.3466        -3.2086       3.0303
   10      27.5130        3.1673      24.3457         3.9579      23.5550
   13      -0.5234        0.4974      -1.0208        -1.6003       1.0768
   43       2.5344        1.6229       0.9115         2.5427      -0.0083
   65       0.2020        1.1447      -0.9426        -1.0364       1.2384
 Sum       24.2855        1.0414      23.2441        -7.8839      32.1694

 Contributions to Isotropic shielding for atom   25 (    25.7203 ppm):
                         Standard Origin              Atomic Origin
 NLMO      Total    Paramagnetic  Diamagnetic   Paramagnetic  Diamagnetic
    5       0.4933       -1.0673       1.5606         0.5624      -0.0691
    6       0.0327       -0.2095       0.2422        -1.1252       1.1579
    7       0.9803       -0.0370       1.0173        -0.3492       1.3295
    8      -3.2741       -0.0462      -3.2279        -3.8203       0.5462
    9       0.3644        0.4563      -0.0919        -3.1728       3.5372
   10      -0.2938       -0.5339       0.2402        -1.2349       0.9411
   11       0.8864       -3.3698       4.2562        -0.0549       0.9413
   12      26.4877        2.5190      23.9687         2.6702      23.8176
   13      -0.6698        0.3788      -1.0486        -0.8456       0.1758
 Sum       25.0072       -1.9098      26.9170        -7.3704      32.3776

 Contributions to Isotropic shielding for atom   26 (    24.7742 ppm):
                         Standard Origin              Atomic Origin
 NLMO      Total    Paramagnetic  Diamagnetic   Paramagnetic  Diamagnetic
    1       0.7315       -0.9233       1.6548        -0.2252       0.9567
    3      -0.0376       -1.5093       1.4717        -0.6429       0.6052
    4      -0.0475       -1.4820       1.4345        -0.6574       0.6098
    6      -0.9867        0.1075      -1.0942        -1.2501       0.2634
    7      -0.8480       -0.4707      -0.3773        -1.8773       1.0293
   15      -2.3301       -0.3386      -1.9915        -3.4617       1.1316
   16      -1.8873       -1.5936      -0.2937        -2.8158       0.9285
   17       1.1216       -0.1167       1.2383        -2.4804       3.6020
   18      27.3785        3.1760      24.2025         3.4263      23.9522
   20      -0.2664        0.2146      -0.4810        -1.3624       1.0960
   22      -0.2308        0.0118      -0.2426        -1.0137       0.7828
   23       0.3838        0.5815      -0.1977        -0.8449       1.2287
   47       1.5645        1.1429       0.4215         1.5891      -0.0246
   65       0.6008       -0.0907       0.6915         1.0149      -0.4141
 Sum       25.1461       -1.2907      26.4368       -10.6014      35.7475

 Contributions to Isotropic shielding for atom   27 (    24.6934 ppm):
                         Standard Origin              Atomic Origin
 NLMO      Total    Paramagnetic  Diamagnetic   Paramagnetic  Diamagnetic
   16      -2.5831       -1.1835      -1.3996        -3.2537       0.6706
   17       0.4936       -1.3828       1.8764        -2.9811       3.4747
   18      -0.2461       -1.3885       1.1424        -1.3341       1.0880
   19      -0.6164       -2.9685       2.3522        -1.5912       0.9749
   20      27.0174        2.9607      24.0566         3.0523      23.9650
   21      -0.3339       -0.1306      -0.2033        -1.2074       0.8734
   26      -0.0203        0.0621      -0.0824        -1.0643       1.0440
   30       0.5093       -0.0406       0.5499        -0.5461       1.0554
   65       0.9336       -0.6117       1.5453         0.0059       0.9277
 Sum       25.1541       -4.6834      29.8374        -8.9197      34.0737

 Contributions to Isotropic shielding for atom   28 (    24.2294 ppm):
                         Standard Origin              Atomic Origin
 NLMO      Total    Paramagnetic  Diamagnetic   Paramagnetic  Diamagnetic
   21      -0.3438       -0.2700      -0.0738        -1.2742       0.9303
   22      -0.0302       -0.2065       0.1762        -1.0117       0.9815
   23       0.1309       -0.6148       0.7457        -1.3998       1.5307
   24      -1.2127       -2.7003       1.4875        -2.2741       1.0614
   25       1.5269       -0.8071       2.3340        -1.7300       3.2569
   27      -2.3992       -1.5589      -0.8403        -3.2697       0.8705
   28      26.9675        3.0765      23.8910         3.4031      23.5645
   31      -0.2394       -1.1110       0.8715        -1.3034       1.0640
   36       0.7593       -0.2177       0.9770        -0.2782       1.0376
   38       0.5119        0.0255       0.4864        -0.7873       1.2992
 Sum       25.6712       -4.3842      30.0553        -9.9254      35.5966

 Contributions to Isotropic shielding for atom   29 (    24.1784 ppm):
                         Standard Origin              Atomic Origin
 NLMO      Total    Paramagnetic  Diamagnetic   Paramagnetic  Diamagnetic
   25       1.4247        0.6022       0.8225         0.6910       0.7337
   27      -1.6839       -2.4492       0.7653        -2.2538       0.5698
   28      -0.2661       -0.1715      -0.0947        -1.2590       0.9929
   29      -2.8048       -1.0101      -1.7948        -2.9267       0.1219
   30       0.0691       -0.2065       0.2756        -3.5569       3.6260
   31      26.4077        3.1906      23.2171         3.5650      22.8427
   32      -0.0205        0.2722      -0.2928        -1.6068       1.5862
   34       0.8422       -0.2747       1.1168        -0.0731       0.9152
   36       2.7832       -0.6601       3.4433         1.0133       1.7699
   37      -0.1321       -0.1063      -0.0258        -1.0428       0.9107
   38       0.8686       -0.0327       0.9013        -0.5144       1.3830
   52       1.0952        0.7021       0.3931         1.1152      -0.0200
   72      -1.4702        0.5369      -2.0071        -0.4156      -1.0546
   73      -1.0406       -2.2791       1.2385        -0.7822      -0.2584
   74      -0.2804       -1.8834       1.6030        -1.2507       0.9703
 Sum       25.7919       -3.7697      29.5615        -9.2975      35.0893

 Contributions to Isotropic shielding for atom   30 (    23.2242 ppm):
                         Standard Origin              Atomic Origin
 NLMO      Total    Paramagnetic  Diamagnetic   Paramagnetic  Diamagnetic
   19       0.1066       -0.2489       0.3554        -0.8999       1.0065
   21      -0.3316       -0.2168      -0.1148        -1.2315       0.8999
   26      -1.6887       -2.9239       1.2353        -2.7498       1.0611
   30       1.0765       -0.3349       1.4114        -0.3781       1.4546
   34       0.7747       -0.2112       0.9860        -0.3063       1.0810
   35       0.7002       -0.2473       0.9475        -0.3323       1.0324
   37      -2.2516       -1.2812      -0.9704        -3.3390       1.0874
   38       0.4835       -1.1352       1.6187        -2.9713       3.4548
   39      27.5038        3.6691      23.8347         4.0266      23.4773
   75      -1.6693       -1.7140       0.0448        -1.4742      -0.1951
 Sum       24.7041       -4.6443      29.3484        -9.6557      34.3598

 Contributions to Isotropic shielding for atom   31 (    24.4716 ppm):
                         Standard Origin              Atomic Origin
 NLMO      Total    Paramagnetic  Diamagnetic   Paramagnetic  Diamagnetic
    5       0.3655       -0.7340       1.0994        -0.4448       0.8103
   12      -0.0177       -1.3354       1.3177        -0.8307       0.8130
   14      -1.9097       -1.4184      -0.4914        -3.5780       1.6682
   17       0.6285        0.1294       0.4990        -0.6927       1.3212
   21      -0.2866       -0.1730      -0.1136        -1.1584       0.8718
   22      -0.9981       -2.7737       1.7757        -2.2763       1.2782
   23       2.1373       -1.0449       3.1821        -1.2317       3.3689
   24      -0.0242        0.0202      -0.0444        -1.0697       1.0455
   25      -0.3092       -0.5829       0.2737        -1.6345       1.3253
   40      27.1996        3.2401      23.9595         3.2579      23.9417
   65      -0.8739       -1.8978       1.0240        -1.7413       0.8674
 Sum       25.9114       -6.5704      32.4818       -11.4001      37.3115
 
 Leave Link  607 at Fri Oct  4 16:58:33 2024, MaxMem=  2097152000 cpu:             102.9 elap:              14.0
 (Enter /uufs/chpc.utah.edu/sys/installdir/gaussian16/C01/AVX/g16/l9999.exe)
 Unable to Open any file for archive entry.
 1\1\GINC-NOTCH132\SP\RAPFD\6-31G(d)\C14H11F1N2O2S1\U1318517\04-Oct-202
 4\0\\#p apfd/6-31G* volume NMR pop=NPA geom=check guess=read\\ID-4005\
 \0,1\C,0,1.0764126013,-0.1440787147,-0.0159418303\N,0,2.5116533757,-0.
 0280960489,0.0316008117\C,0,3.2335333456,1.1407563374,0.1357754679\C,0
 ,4.5743688449,0.8727989383,0.1442155613\C,0,4.70721768,-0.5472359483,0
 .0422974606\C,0,3.390957443,-1.0773134747,-0.0290100497\C,0,3.14604682
 55,-2.4476929622,-0.1430529701\C,0,4.2415670477,-3.2926744984,-0.19029
 04136\C,0,5.5665394405,-2.7974866039,-0.1205300656\C,0,6.7017386544,-3
 .7325892682,-0.1755912841\C,0,7.8494046402,-3.5524646297,0.6051272479\
 C,0,8.8997242644,-4.4588460102,0.5153985419\C,0,8.7331724609,-5.519266
 0472,-0.3661092465\S,0,10.0588895409,-6.7073827029,-0.5359953114\F,0,9
 .3308263372,-7.9851693329,0.1121985406\O,0,10.2953451584,-7.0342633868
 ,-1.9199142143\O,0,11.1287600347,-6.350101531,0.3701296636\N,0,7.67018
 67596,-5.7307683157,-1.1266000218\C,0,6.681028825,-4.8515718409,-1.029
 626194\C,0,5.7932948964,-1.4260607062,-0.0027214272\H,0,0.6349453143,0
 .8516724808,0.053174152\H,0,0.7068124443,-0.7488232701,0.8195839182\H,
 0,0.7536959197,-0.6052342316,-0.955976522\H,0,2.7131577125,2.087646526
 6,0.1967044559\H,0,5.3709751122,1.6006197938,0.2164312393\H,0,2.134734
 0214,-2.8436098523,-0.1840939212\H,0,4.0817035863,-4.3661074761,-0.247
 6784418\H,0,7.9058608497,-2.7173005937,1.298279359\H,0,9.8030140644,-4
 .3641337814,1.1082624778\H,0,5.8259075064,-5.0245898969,-1.6796102279\
 H,0,6.8096052921,-1.0395129523,0.0184632438\\Version=ES64L-G16RevC.01\
 State=1-A\HF=-1297.2340376\RMSD=7.073e-09\Dipole=-3.1039442,2.7502401,
 0.8047568\Quadrupole=6.6547125,-1.2567375,-5.3979749,2.9722778,4.23081
 ,-2.1964962\PG=C01 [X(C14H11F1N2O2S1)]\\@
 The archive entry for this job was punched.


0EVERYBODY IS IGNORANT, ONLY ON DIFFERENT SUBJECTS.
0          WILL ROGERS
 Job cpu time:       0 days  0 hours  6 minutes 19.1 seconds.
 Elapsed time:       0 days  0 hours  0 minutes 37.7 seconds.
 File lengths (MBytes):  RWF=     78 Int=      0 D2E=      0 Chk=     12 Scr=      2
 Normal termination of Gaussian 16 at Fri Oct  4 16:58:34 2024.
