 Entering Gaussian System, Link 0=g16
 Input=ID-4006.com
 Output=ID-4006.log
 Initial command:
 /uufs/chpc.utah.edu/sys/installdir/gaussian16/C01/AVX/g16/l1.exe "/scratch/general/vast/u1318517/1930436-notchpeak.peaks/Gau-4164761.inp" -scrdir="/scratch/general/vast/u1318517/1930436-notchpeak.peaks/"
 Entering Link 1 = /uufs/chpc.utah.edu/sys/installdir/gaussian16/C01/AVX/g16/l1.exe PID=   4164762.
  
 Copyright (c) 1988-2019, Gaussian, Inc.  All Rights Reserved.
  
 This is part of the Gaussian(R) 16 program.  It is based on
 the Gaussian(R) 09 system (copyright 2009, Gaussian, Inc.),
 the Gaussian(R) 03 system (copyright 2003, Gaussian, Inc.),
 the Gaussian(R) 98 system (copyright 1998, Gaussian, Inc.),
 the Gaussian(R) 94 system (copyright 1995, Gaussian, Inc.),
 the Gaussian 92(TM) system (copyright 1992, Gaussian, Inc.),
 the Gaussian 90(TM) system (copyright 1990, Gaussian, Inc.),
 the Gaussian 88(TM) system (copyright 1988, Gaussian, Inc.),
 the Gaussian 86(TM) system (copyright 1986, Carnegie Mellon
 University), and the Gaussian 82(TM) system (copyright 1983,
 Carnegie Mellon University). Gaussian is a federally registered
 trademark of Gaussian, Inc.
  
 This software contains proprietary and confidential information,
 including trade secrets, belonging to Gaussian, Inc.
  
 This software is provided under written license and may be
 used, copied, transmitted, or stored only in accord with that
 written license.
  
 The following legend is applicable only to US Government
 contracts under FAR:
  
                    RESTRICTED RIGHTS LEGEND
  
 Use, reproduction and disclosure by the US Government is
 subject to restrictions as set forth in subparagraphs (a)
 and (c) of the Commercial Computer Software - Restricted
 Rights clause in FAR 52.227-19.
  
 Gaussian, Inc.
 340 Quinnipiac St., Bldg. 40, Wallingford CT 06492
  
  
 ---------------------------------------------------------------
 Warning -- This program may not be used in any manner that
 competes with the business of Gaussian, Inc. or will provide
 assistance to any competitor of Gaussian, Inc.  The licensee
 of this program is prohibited from giving any competitor of
 Gaussian, Inc. access to this program.  By using this program,
 the user acknowledges that Gaussian, Inc. is engaged in the
 business of creating and licensing software in the field of
 computational chemistry and represents and warrants to the
 licensee that it is not a competitor of Gaussian, Inc. and that
 it will not use this program in any manner prohibited above.
 ---------------------------------------------------------------
  

 Cite this work as:
 Gaussian 16, Revision C.01,
 M. J. Frisch, G. W. Trucks, H. B. Schlegel, G. E. Scuseria, 
 M. A. Robb, J. R. Cheeseman, G. Scalmani, V. Barone, 
 G. A. Petersson, H. Nakatsuji, X. Li, M. Caricato, A. V. Marenich, 
 J. Bloino, B. G. Janesko, R. Gomperts, B. Mennucci, H. P. Hratchian, 
 J. V. Ortiz, A. F. Izmaylov, J. L. Sonnenberg, D. Williams-Young, 
 F. Ding, F. Lipparini, F. Egidi, J. Goings, B. Peng, A. Petrone, 
 T. Henderson, D. Ranasinghe, V. G. Zakrzewski, J. Gao, N. Rega, 
 G. Zheng, W. Liang, M. Hada, M. Ehara, K. Toyota, R. Fukuda, 
 J. Hasegawa, M. Ishida, T. Nakajima, Y. Honda, O. Kitao, H. Nakai, 
 T. Vreven, K. Throssell, J. A. Montgomery, Jr., J. E. Peralta, 
 F. Ogliaro, M. J. Bearpark, J. J. Heyd, E. N. Brothers, K. N. Kudin, 
 V. N. Staroverov, T. A. Keith, R. Kobayashi, J. Normand, 
 K. Raghavachari, A. P. Rendell, J. C. Burant, S. S. Iyengar, 
 J. Tomasi, M. Cossi, J. M. Millam, M. Klene, C. Adamo, R. Cammi, 
 J. W. Ochterski, R. L. Martin, K. Morokuma, O. Farkas, 
 J. B. Foresman, and D. J. Fox, Gaussian, Inc., Wallingford CT, 2019.
 
 ******************************************
 Gaussian 16:  ES64L-G16RevC.01  3-Jul-2019
                 4-Oct-2024 
 ******************************************
 %nprocs=16
 Will use up to   16 processors via shared memory.
 %mem=16000MB
 %chk=ID-4006.chk
 -------------------------------
 #p apfd/6-31G* opt freq=noraman
 -------------------------------
 1/18=20,19=15,26=3,38=1/1,3;
 2/9=110,12=2,17=6,18=5,40=1/2;
 3/5=1,6=6,7=1,11=2,25=1,30=1,71=1,74=-44/1,2,3;
 4//1;
 5/5=2,38=5/2;
 6/7=2,8=2,9=2,10=2,28=1/1;
 7//1,2,3,16;
 1/18=20,19=15,26=3/3(2);
 2/9=110/2;
 99//99;
 2/9=110/2;
 3/5=1,6=6,7=1,11=2,25=1,30=1,71=1,74=-44/1,2,3;
 4/5=5,16=3,69=1/1;
 5/5=2,38=5/2;
 7//1,2,3,16;
 1/18=20,19=15,26=3/3(-5);
 2/9=110/2;
 6/7=2,8=2,9=2,10=2,19=2,28=1/1;
 99/9=1/99;
 Leave Link    1 at Fri Oct  4 19:57:47 2024, MaxMem=  2097152000 cpu:               1.0 elap:               0.1
 (Enter /uufs/chpc.utah.edu/sys/installdir/gaussian16/C01/AVX/g16/l101.exe)
 -------
 ID-4006
 -------
 Symbolic Z-matrix:
 Charge =  0 Multiplicity = 1
 O                     2.26963   1.14334  -0.04068 
 C                     2.27611  -0.07537   0.0171 
 O                     1.74399  -0.83408   1.00484 
 C                     1.09007  -0.0949    2.04011 
 C                     2.8565   -0.93142  -1.04237 
 C                     3.4959   -0.33304  -2.13678 
 C                     3.9732   -1.12621  -3.1789 
 C                     3.78452  -2.49598  -3.07355 
 S                     4.24863  -3.56306  -4.41764 
 F                     3.89561  -5.05053  -3.99362 
 O                     3.37969  -3.25896  -5.53978 
 O                     5.6932   -3.52179  -4.53735 
 N                     3.19946  -3.12624  -2.01972 
 C                     2.75047  -2.31973  -1.02512 
 H                     0.99737  -0.74737   2.91271 
 H                     0.08691   0.18701   1.70685 
 H                     1.66164   0.79087   2.33456 
 H                     3.6019    0.74963  -2.18748 
 H                     4.45063  -0.68516  -4.04825 
 H                     2.27379  -2.84821  -0.20283 
 
 ITRead=  0  0  0  0  0  0  0  0  0  0  0  0  0  0  0  0  0  0  0  0
 MicOpt= -1 -1 -1 -1 -1 -1 -1 -1 -1 -1 -1 -1 -1 -1 -1 -1 -1 -1 -1 -1
 NAtoms=     20 NQM=       20 NQMF=       0 NMMI=      0 NMMIF=      0
                NMic=       0 NMicF=      0.
                    Isotopes and Nuclear Properties:
 (Nuclear quadrupole moments (NQMom) in fm**2, nuclear magnetic moments (NMagM)
  in nuclear magnetons)

  Atom         1           2           3           4           5           6           7           8           9          10
 IAtWgt=          16          12          16          12          12          12          12          12          32          19
 AtmWgt=  15.9949146  12.0000000  15.9949146  12.0000000  12.0000000  12.0000000  12.0000000  12.0000000  31.9720718  18.9984032
 NucSpn=           0           0           0           0           0           0           0           0           0           1
 AtZEff=  -0.0000000  -0.0000000  -0.0000000  -0.0000000  -0.0000000  -0.0000000  -0.0000000  -0.0000000  -0.0000000  -0.0000000
 NQMom=    0.0000000   0.0000000   0.0000000   0.0000000   0.0000000   0.0000000   0.0000000   0.0000000   0.0000000   0.0000000
 NMagM=    0.0000000   0.0000000   0.0000000   0.0000000   0.0000000   0.0000000   0.0000000   0.0000000   0.0000000   2.6288670
 AtZNuc=   8.0000000   6.0000000   8.0000000   6.0000000   6.0000000   6.0000000   6.0000000   6.0000000  16.0000000   9.0000000

  Atom        11          12          13          14          15          16          17          18          19          20
 IAtWgt=          16          16          14          12           1           1           1           1           1           1
 AtmWgt=  15.9949146  15.9949146  14.0030740  12.0000000   1.0078250   1.0078250   1.0078250   1.0078250   1.0078250   1.0078250
 NucSpn=           0           0           2           0           1           1           1           1           1           1
 AtZEff=  -0.0000000  -0.0000000  -0.0000000  -0.0000000  -0.0000000  -0.0000000  -0.0000000  -0.0000000  -0.0000000  -0.0000000
 NQMom=    0.0000000   0.0000000   2.0440000   0.0000000   0.0000000   0.0000000   0.0000000   0.0000000   0.0000000   0.0000000
 NMagM=    0.0000000   0.0000000   0.4037610   0.0000000   2.7928460   2.7928460   2.7928460   2.7928460   2.7928460   2.7928460
 AtZNuc=   8.0000000   8.0000000   7.0000000   6.0000000   1.0000000   1.0000000   1.0000000   1.0000000   1.0000000   1.0000000
 Leave Link  101 at Fri Oct  4 19:57:48 2024, MaxMem=  2097152000 cpu:              12.8 elap:               0.8
 (Enter /uufs/chpc.utah.edu/sys/installdir/gaussian16/C01/AVX/g16/l103.exe)

 GradGradGradGradGradGradGradGradGradGradGradGradGradGradGradGradGradGrad
 Berny optimization.
 Initialization pass.
                           ----------------------------
                           !    Initial Parameters    !
                           ! (Angstroms and Degrees)  !
 --------------------------                            --------------------------
 ! Name  Definition              Value          Derivative Info.                !
 --------------------------------------------------------------------------------
 ! R1    R(1,2)                  1.2201         estimate D2E/DX2                !
 ! R2    R(2,3)                  1.3544         estimate D2E/DX2                !
 ! R3    R(2,5)                  1.4806         estimate D2E/DX2                !
 ! R4    R(3,4)                  1.4303         estimate D2E/DX2                !
 ! R5    R(4,15)                 1.0935         estimate D2E/DX2                !
 ! R6    R(4,16)                 1.094          estimate D2E/DX2                !
 ! R7    R(4,17)                 1.0945         estimate D2E/DX2                !
 ! R8    R(5,6)                  1.4017         estimate D2E/DX2                !
 ! R9    R(5,14)                 1.3925         estimate D2E/DX2                !
 ! R10   R(6,7)                  1.3939         estimate D2E/DX2                !
 ! R11   R(6,18)                 1.089          estimate D2E/DX2                !
 ! R12   R(7,8)                  1.3867         estimate D2E/DX2                !
 ! R13   R(7,19)                 1.0855         estimate D2E/DX2                !
 ! R14   R(8,9)                  1.7778         estimate D2E/DX2                !
 ! R15   R(8,13)                 1.3602         estimate D2E/DX2                !
 ! R16   R(9,10)                 1.5865         estimate D2E/DX2                !
 ! R17   R(9,11)                 1.4515         estimate D2E/DX2                !
 ! R18   R(9,12)                 1.4501         estimate D2E/DX2                !
 ! R19   R(13,14)                1.3569         estimate D2E/DX2                !
 ! R20   R(14,20)                1.0875         estimate D2E/DX2                !
 ! A1    A(1,2,3)              126.2984         estimate D2E/DX2                !
 ! A2    A(1,2,5)              123.0738         estimate D2E/DX2                !
 ! A3    A(3,2,5)              110.6082         estimate D2E/DX2                !
 ! A4    A(2,3,4)              114.7071         estimate D2E/DX2                !
 ! A5    A(3,4,15)             107.9379         estimate D2E/DX2                !
 ! A6    A(3,4,16)             109.3843         estimate D2E/DX2                !
 ! A7    A(3,4,17)             111.9751         estimate D2E/DX2                !
 ! A8    A(15,4,16)            108.6089         estimate D2E/DX2                !
 ! A9    A(15,4,17)            108.2083         estimate D2E/DX2                !
 ! A10   A(16,4,17)            110.6252         estimate D2E/DX2                !
 ! A11   A(2,5,6)              119.3871         estimate D2E/DX2                !
 ! A12   A(2,5,14)             122.5302         estimate D2E/DX2                !
 ! A13   A(6,5,14)             118.0374         estimate D2E/DX2                !
 ! A14   A(5,6,7)              119.8037         estimate D2E/DX2                !
 ! A15   A(5,6,18)             120.3427         estimate D2E/DX2                !
 ! A16   A(7,6,18)             119.8396         estimate D2E/DX2                !
 ! A17   A(6,7,8)              117.3026         estimate D2E/DX2                !
 ! A18   A(6,7,19)             121.2101         estimate D2E/DX2                !
 ! A19   A(8,7,19)             121.4699         estimate D2E/DX2                !
 ! A20   A(7,8,9)              119.9953         estimate D2E/DX2                !
 ! A21   A(7,8,13)             125.106          estimate D2E/DX2                !
 ! A22   A(9,8,13)             114.8298         estimate D2E/DX2                !
 ! A23   A(8,9,10)             107.6139         estimate D2E/DX2                !
 ! A24   A(8,9,11)             107.6054         estimate D2E/DX2                !
 ! A25   A(8,9,12)             107.7816         estimate D2E/DX2                !
 ! A26   A(10,9,11)            105.6554         estimate D2E/DX2                !
 ! A27   A(10,9,12)            105.6888         estimate D2E/DX2                !
 ! A28   A(11,9,12)            121.7757         estimate D2E/DX2                !
 ! A29   A(8,13,14)            115.7731         estimate D2E/DX2                !
 ! A30   A(5,14,13)            123.9392         estimate D2E/DX2                !
 ! A31   A(5,14,20)            121.8198         estimate D2E/DX2                !
 ! A32   A(13,14,20)           114.2312         estimate D2E/DX2                !
 ! D1    D(1,2,3,4)              1.8074         estimate D2E/DX2                !
 ! D2    D(5,2,3,4)           -176.6135         estimate D2E/DX2                !
 ! D3    D(1,2,5,6)              3.5152         estimate D2E/DX2                !
 ! D4    D(1,2,5,14)          -173.988          estimate D2E/DX2                !
 ! D5    D(3,2,5,6)           -178.0036         estimate D2E/DX2                !
 ! D6    D(3,2,5,14)             4.4932         estimate D2E/DX2                !
 ! D7    D(2,3,4,15)          -161.7403         estimate D2E/DX2                !
 ! D8    D(2,3,4,16)            80.26           estimate D2E/DX2                !
 ! D9    D(2,3,4,17)           -42.7412         estimate D2E/DX2                !
 ! D10   D(2,5,6,7)           -176.0918         estimate D2E/DX2                !
 ! D11   D(2,5,6,18)             2.5434         estimate D2E/DX2                !
 ! D12   D(14,5,6,7)             1.5233         estimate D2E/DX2                !
 ! D13   D(14,5,6,18)         -179.8415         estimate D2E/DX2                !
 ! D14   D(2,5,14,13)          175.8349         estimate D2E/DX2                !
 ! D15   D(2,5,14,20)           -2.9659         estimate D2E/DX2                !
 ! D16   D(6,5,14,13)           -1.7003         estimate D2E/DX2                !
 ! D17   D(6,5,14,20)          179.4989         estimate D2E/DX2                !
 ! D18   D(5,6,7,8)              0.0197         estimate D2E/DX2                !
 ! D19   D(5,6,7,19)           178.5244         estimate D2E/DX2                !
 ! D20   D(18,6,7,8)          -178.6224         estimate D2E/DX2                !
 ! D21   D(18,6,7,19)           -0.1178         estimate D2E/DX2                !
 ! D22   D(6,7,8,9)            175.1746         estimate D2E/DX2                !
 ! D23   D(6,7,8,13)            -1.6457         estimate D2E/DX2                !
 ! D24   D(19,7,8,9)            -3.3259         estimate D2E/DX2                !
 ! D25   D(19,7,8,13)          179.8538         estimate D2E/DX2                !
 ! D26   D(7,8,9,10)          -179.4641         estimate D2E/DX2                !
 ! D27   D(7,8,9,11)           -66.0245         estimate D2E/DX2                !
 ! D28   D(7,8,9,12)            66.9723         estimate D2E/DX2                !
 ! D29   D(13,8,9,10)           -2.33           estimate D2E/DX2                !
 ! D30   D(13,8,9,11)          111.1096         estimate D2E/DX2                !
 ! D31   D(13,8,9,12)         -115.8936         estimate D2E/DX2                !
 ! D32   D(7,8,13,14)            1.5246         estimate D2E/DX2                !
 ! D33   D(9,8,13,14)         -175.4413         estimate D2E/DX2                !
 ! D34   D(8,13,14,5)            0.221          estimate D2E/DX2                !
 ! D35   D(8,13,14,20)         179.1035         estimate D2E/DX2                !
 --------------------------------------------------------------------------------
 Trust Radius=3.00D-01 FncErr=1.00D-07 GrdErr=1.00D-06 EigMax=2.50D+02 EigMin=1.00D-04
 Number of steps in this run=     97 maximum allowed number of steps=    120.
 GradGradGradGradGradGradGradGradGradGradGradGradGradGradGradGradGradGrad

 Leave Link  103 at Fri Oct  4 19:57:48 2024, MaxMem=  2097152000 cpu:               0.3 elap:               0.0
 (Enter /uufs/chpc.utah.edu/sys/installdir/gaussian16/C01/AVX/g16/l202.exe)
                          Input orientation:                          
 ---------------------------------------------------------------------
 Center     Atomic      Atomic             Coordinates (Angstroms)
 Number     Number       Type             X           Y           Z
 ---------------------------------------------------------------------
      1          8           0        2.269630    1.143340   -0.040680
      2          6           0        2.276110   -0.075370    0.017100
      3          8           0        1.743990   -0.834080    1.004840
      4          6           0        1.090070   -0.094900    2.040110
      5          6           0        2.856500   -0.931420   -1.042370
      6          6           0        3.495900   -0.333040   -2.136780
      7          6           0        3.973200   -1.126210   -3.178900
      8          6           0        3.784520   -2.495980   -3.073550
      9         16           0        4.248630   -3.563060   -4.417640
     10          9           0        3.895610   -5.050530   -3.993620
     11          8           0        3.379690   -3.258960   -5.539780
     12          8           0        5.693200   -3.521790   -4.537350
     13          7           0        3.199460   -3.126240   -2.019720
     14          6           0        2.750470   -2.319730   -1.025120
     15          1           0        0.997370   -0.747370    2.912710
     16          1           0        0.086910    0.187010    1.706850
     17          1           0        1.661640    0.790870    2.334560
     18          1           0        3.601900    0.749630   -2.187480
     19          1           0        4.450630   -0.685160   -4.048250
     20          1           0        2.273790   -2.848210   -0.202830
 ---------------------------------------------------------------------
                    Distance matrix (angstroms):
                    1          2          3          4          5
     1  O    0.000000
     2  C    1.220096   0.000000
     3  O    2.297738   1.354409   0.000000
     4  C    2.693378   2.345132   1.430309   0.000000
     5  C    2.377484   1.480591   2.332000   3.649894   0.000000
     6  C    2.842019   2.488670   3.631805   4.826089   1.401651
     7  C    4.231008   3.768129   4.749568   6.050959   2.418620
     8  C    4.973715   4.205564   4.853755   6.258975   2.726676
     9  S    6.724910   5.976766   6.566875   7.981677   4.500667
    10  F    7.525528   6.592486   6.884223   8.296699   5.172687
    11  O    7.131099   6.498619   7.168515   8.526920   5.090959
    12  O    7.328322   6.655624   7.316824   8.728995   5.193435
    13  N    4.796926   3.782726   4.064524   5.488239   2.426947
    14  C    3.632242   2.519602   2.709409   4.135509   1.392460
    15  H    3.730408   3.235941   2.050592   1.093499   4.374117
    16  H    2.955113   2.777894   2.069144   1.094013   4.059523
    17  H    2.477025   2.549229   2.101285   1.094523   3.974623
    18  H    2.557088   2.701577   4.018815   4.989493   2.166293
    19  H    4.915363   4.650532   5.734265   6.979248   3.411335
    20  H    3.994844   2.781549   2.407462   3.743353   2.172202
                    6          7          8          9         10
     6  C    0.000000
     7  C    1.393897   0.000000
     8  C    2.374689   1.386711   0.000000
     9  S    4.025165   2.747467   1.777818   0.000000
    10  F    5.085502   4.008750   2.717461   1.586500   0.000000
    11  O    4.489423   3.236453   2.613105   1.451458   2.422087
    12  O    4.556203   3.246935   2.614968   1.450109   2.421573
    13  N    2.811325   2.437723   1.360177   2.653599   2.843202
    14  C    2.395494   2.749241   2.301388   3.911463   4.192923
    15  H    5.649042   6.790199   6.830897   8.498990   8.637961
    16  H    5.163832   6.379526   6.612335   8.300140   8.627478
    17  H    4.961911   6.278276   6.675152   8.440464   8.897103
    18  H    1.089027   2.153962   3.369340   4.898078   6.081962
    19  H    2.165460   1.085465   2.161669   2.908533   4.400851
    20  H    3.399970   3.835397   3.263036   4.709100   4.674463
                   11         12         13         14         15
    11  O    0.000000
    12  O    2.535010   0.000000
    13  N    3.527169   3.565622   0.000000
    14  C    4.654055   4.737127   1.356938   0.000000
    15  H    9.133900   9.233180   5.902295   4.588266   0.000000
    16  H    8.673566   9.174733   5.878173   4.565299   1.776542
    17  H    9.019870   9.059562   6.055443   4.706255   1.772483
    18  H    5.230305   5.304758   3.900317   3.390720   5.919166
    19  H    3.161648   3.135230   3.411632   3.834277   7.770704
    20  H    5.465781   5.561847   2.057973   1.087509   3.968547
                   16         17         18         19         20
    16  H    0.000000
    17  H    1.799567   0.000000
    18  H    5.276126   4.920890   0.000000
    19  H    7.274882   7.120210   2.498285   0.000000
    20  H    4.200224   4.478390   4.318236   4.919824   0.000000
 Stoichiometry    C7H6FNO4S
 Framework group  C1[X(C7H6FNO4S)]
 Deg. of freedom    54
 Full point group                 C1      NOp   1
 Largest Abelian subgroup         C1      NOp   1
 Largest concise Abelian subgroup C1      NOp   1
                         Standard orientation:                         
 ---------------------------------------------------------------------
 Center     Atomic      Atomic             Coordinates (Angstroms)
 Number     Number       Type             X           Y           Z
 ---------------------------------------------------------------------
      1          8           0        3.657888    1.396021    0.126606
      2          6           0        3.051173    0.345573   -0.004124
      3          8           0        3.595438   -0.893566   -0.056393
      4          6           0        5.017042   -0.929085    0.097109
      5          6           0        1.575039    0.270485   -0.090966
      6          6           0        0.825244    1.454716   -0.096452
      7          6           0       -0.567287    1.393045   -0.095470
      8          6           0       -1.148213    0.133899   -0.088542
      9         16           0       -2.913616   -0.029711    0.042676
     10          9           0       -3.253920   -1.579272    0.036507
     11          8           0       -3.302724    0.451529    1.355587
     12          8           0       -3.499380    0.505238   -1.171212
     13          7           0       -0.465939   -1.042495   -0.114605
     14          6           0        0.887111   -0.939888   -0.117325
     15          1           0        5.372572   -1.891883   -0.280196
     16          1           0        5.269545   -0.855498    1.159038
     17          1           0        5.510455   -0.135258   -0.472421
     18          1           0        1.324810    2.422245   -0.079089
     19          1           0       -1.170252    2.295418   -0.075726
     20          1           0        1.407146   -1.894984   -0.122845
 ---------------------------------------------------------------------
 Rotational constants (GHZ):           1.9493434           0.2669702           0.2472854
 Leave Link  202 at Fri Oct  4 19:57:48 2024, MaxMem=  2097152000 cpu:               0.1 elap:               0.0
 (Enter /uufs/chpc.utah.edu/sys/installdir/gaussian16/C01/AVX/g16/l301.exe)
 Standard basis: 6-31G(d) (6D, 7F)
 Ernie: Thresh=  0.10000D-02 Tol=  0.10000D-05 Strict=F.
 There are   226 symmetry adapted cartesian basis functions of A   symmetry.
 There are   226 symmetry adapted basis functions of A   symmetry.
   226 basis functions,   440 primitive gaussians,   226 cartesian basis functions
    56 alpha electrons       56 beta electrons
       nuclear repulsion energy      1012.0498649264 Hartrees.
 IExCor= 3731 DFT=T Ex+Corr=APFD ExCW=0 ScaHFX=  0.229450
 ScaDFX=  1.000000  1.000000  1.000000  1.000000 ScalE2=  1.000000  1.000000
 IRadAn=      5 IRanWt=     -1 IRanGd=            0 ICorTp=0 IEmpDi=211
 NAtoms=   20 NActive=   20 NUniq=   20 SFac= 1.00D+00 NAtFMM=   60 NAOKFM=F Big=F
 Integral buffers will be    131072 words long.
 Raffenetti 2 integral format.
 Two-electron integral symmetry is turned on.
 R6APFD:  NTU= -4 IXU= 1 FactS= 1.050
 R6Disp:  Petersson-Frisch Dispersion energy=       -0.0174831761 Hartrees.
 Nuclear repulsion after empirical dispersion term =     1012.0323817503 Hartrees.
 Leave Link  301 at Fri Oct  4 19:57:48 2024, MaxMem=  2097152000 cpu:               1.1 elap:               0.1
 (Enter /uufs/chpc.utah.edu/sys/installdir/gaussian16/C01/AVX/g16/l302.exe)
 NPDir=0 NMtPBC=     1 NCelOv=     1 NCel=       1 NClECP=     1 NCelD=      1
         NCelK=      1 NCelE2=     1 NClLst=     1 CellRange=     0.0.
 One-electron integrals computed using PRISM.
 One-electron integral symmetry used in STVInt
 NBasis=   226 RedAO= T EigKep=  7.31D-04  NBF=   226
 NBsUse=   226 1.00D-06 EigRej= -1.00D+00 NBFU=   226
 Precomputing XC quadrature grid using
 IXCGrd= 4 IRadAn=           5 IRanWt=          -1 IRanGd=           0 AccXCQ= 0.00D+00.
 Generated NRdTot=       0 NPtTot=           0 NUsed=           0 NTot=          32
 NSgBfM=   223   223   223   223   223 MxSgAt=    20 MxSgA2=    20.
 Leave Link  302 at Fri Oct  4 19:57:49 2024, MaxMem=  2097152000 cpu:               4.3 elap:               0.3
 (Enter /uufs/chpc.utah.edu/sys/installdir/gaussian16/C01/AVX/g16/l303.exe)
 DipDrv:  MaxL=1.
 Leave Link  303 at Fri Oct  4 19:57:49 2024, MaxMem=  2097152000 cpu:               0.9 elap:               0.1
 (Enter /uufs/chpc.utah.edu/sys/installdir/gaussian16/C01/AVX/g16/l401.exe)
 ExpMin= 1.17D-01 ExpMax= 2.19D+04 ExpMxC= 3.30D+03 IAcc=3 IRadAn=         5 AccDes= 0.00D+00
 Harris functional with IExCor= 3731 and IRadAn=       5 diagonalized for initial guess.
 HarFok:  IExCor= 3731 AccDes= 0.00D+00 IRadAn=         5 IDoV= 1 UseB2=F ITyADJ=14
 ICtDFT=  3500011 ScaDFX=  1.000000  1.000000  1.000000  1.000000
 FoFCou: FMM=F IPFlag=           0 FMFlag=      100000 FMFlg1=           0
         NFxFlg=           0 DoJE=T BraDBF=F KetDBF=T FulRan=T
         wScrn=  0.000000 ICntrl=       500 IOpCl=  0 I1Cent=   200000004 NGrid=           0
         NMat0=    1 NMatS0=      1 NMatT0=    0 NMatD0=    1 NMtDS0=    0 NMtDT0=    0
 Petite list used in FoFCou.
 Harris En= -1097.69730459979    
 JPrj=0 DoOrth=F DoCkMO=F.
 Leave Link  401 at Fri Oct  4 19:57:50 2024, MaxMem=  2097152000 cpu:              13.0 elap:               0.8
 (Enter /uufs/chpc.utah.edu/sys/installdir/gaussian16/C01/AVX/g16/l502.exe)
 Integral symmetry usage will be decided dynamically.
 Closed shell SCF:
 Using DIIS extrapolation, IDIIS=  1040.
 NGot=  2097152000 LenX=  2097043335 LenY=  2096991818
 Requested convergence on RMS density matrix=1.00D-08 within 128 cycles.
 Requested convergence on MAX density matrix=1.00D-06.
 Requested convergence on             energy=1.00D-06.
 No special actions if energy rises.
 Fock matrices will be formed incrementally for  20 cycles.
 Integral accuracy reduced to 1.0D-05 until final iterations.

 Cycle   1  Pass 0  IDiag  1:
 FoFJK:  IHMeth= 1 ICntrl=       0 DoSepK=F KAlg= 0 I1Cent=           0 FoldK=F
 IRaf= 810000000 NMat=       1 IRICut=       1 DoRegI=T DoRafI=F ISym2E= 0 IDoP0=0 IntGTp=1.
 FoFCou: FMM=F IPFlag=           0 FMFlag=      100000 FMFlg1=           0
         NFxFlg=           0 DoJE=F BraDBF=F KetDBF=F FulRan=T
         wScrn=  0.000000 ICntrl=         0 IOpCl=  0 I1Cent=           0 NGrid=           0
         NMat0=    1 NMatS0=      1 NMatT0=    0 NMatD0=    1 NMtDS0=    0 NMtDT0=    0
 Symmetry not used in FoFCou.
 E= -1122.90381812357    
 DIIS: error= 7.47D-02 at cycle   1 NSaved=   1.
 NSaved= 1 IEnMin= 1 EnMin= -1122.90381812357     IErMin= 1 ErrMin= 7.47D-02
 ErrMax= 7.47D-02  0.00D+00 EMaxC= 1.00D-01 BMatC= 1.06D+00 BMatP= 1.06D+00
 IDIUse=3 WtCom= 2.53D-01 WtEn= 7.47D-01
 Coeff-Com:  0.100D+01
 Coeff-En:   0.100D+01
 Coeff:      0.100D+01
 Gap=     0.264 Goal=   None    Shift=    0.000
 GapD=    0.264 DampG=1.000 DampE=0.500 DampFc=0.5000 IDamp=-1.
 Damping current iteration by 5.00D-01
 RMSDP=7.73D-03 MaxDP=5.92D-01              OVMax= 3.01D-01

 Cycle   2  Pass 0  IDiag  1:
 RMSU=  3.87D-03    CP:  1.00D+00
 E= -1123.01901816182     Delta-E=       -0.115200038246 Rises=F Damp=T
 DIIS: error= 3.33D-02 at cycle   2 NSaved=   2.
 NSaved= 2 IEnMin= 2 EnMin= -1123.01901816182     IErMin= 2 ErrMin= 3.33D-02
 ErrMax= 3.33D-02  0.00D+00 EMaxC= 1.00D-01 BMatC= 1.99D-01 BMatP= 1.06D+00
 IDIUse=3 WtCom= 6.67D-01 WtEn= 3.33D-01
 Coeff-Com: -0.551D-01 0.106D+01
 Coeff-En:   0.302D+00 0.698D+00
 Coeff:      0.638D-01 0.936D+00
 Gap=     0.325 Goal=   None    Shift=    0.000
 RMSDP=2.92D-03 MaxDP=7.78D-02 DE=-1.15D-01 OVMax= 2.42D-01

 Cycle   3  Pass 0  IDiag  1:
 RMSU=  2.79D-03    CP:  1.01D+00  7.76D-01
 E= -1123.14853820143     Delta-E=       -0.129520039617 Rises=F Damp=F
 DIIS: error= 2.86D-02 at cycle   3 NSaved=   3.
 NSaved= 3 IEnMin= 3 EnMin= -1123.14853820143     IErMin= 3 ErrMin= 2.86D-02
 ErrMax= 2.86D-02  0.00D+00 EMaxC= 1.00D-01 BMatC= 1.87D-01 BMatP= 1.99D-01
 IDIUse=3 WtCom= 7.14D-01 WtEn= 2.86D-01
 Coeff-Com: -0.189D+00 0.622D+00 0.567D+00
 Coeff-En:   0.000D+00 0.248D+00 0.752D+00
 Coeff:     -0.135D+00 0.515D+00 0.620D+00
 Gap=     0.253 Goal=   None    Shift=    0.000
 RMSDP=2.54D-03 MaxDP=7.03D-02 DE=-1.30D-01 OVMax= 1.37D-01

 Cycle   4  Pass 0  IDiag  1:
 RMSU=  1.28D-03    CP:  1.01D+00  1.07D+00  3.28D-01
 E= -1123.26047992089     Delta-E=       -0.111941719457 Rises=F Damp=F
 DIIS: error= 1.48D-02 at cycle   4 NSaved=   4.
 NSaved= 4 IEnMin= 4 EnMin= -1123.26047992089     IErMin= 4 ErrMin= 1.48D-02
 ErrMax= 1.48D-02  0.00D+00 EMaxC= 1.00D-01 BMatC= 4.90D-02 BMatP= 1.87D-01
 IDIUse=3 WtCom= 8.52D-01 WtEn= 1.48D-01
 Coeff-Com: -0.663D-01 0.174D+00 0.387D+00 0.505D+00
 Coeff-En:   0.000D+00 0.000D+00 0.261D+00 0.739D+00
 Coeff:     -0.565D-01 0.148D+00 0.368D+00 0.540D+00
 Gap=     0.231 Goal=   None    Shift=    0.000
 RMSDP=1.10D-03 MaxDP=3.36D-02 DE=-1.12D-01 OVMax= 6.52D-02

 Cycle   5  Pass 0  IDiag  1:
 RMSU=  3.84D-04    CP:  1.01D+00  9.96D-01  5.80D-01  4.62D-01
 E= -1123.30049363902     Delta-E=       -0.040013718130 Rises=F Damp=F
 DIIS: error= 3.71D-03 at cycle   5 NSaved=   5.
 NSaved= 5 IEnMin= 5 EnMin= -1123.30049363902     IErMin= 5 ErrMin= 3.71D-03
 ErrMax= 3.71D-03  0.00D+00 EMaxC= 1.00D-01 BMatC= 2.50D-03 BMatP= 4.90D-02
 IDIUse=3 WtCom= 9.63D-01 WtEn= 3.71D-02
 Coeff-Com: -0.241D-01 0.557D-01 0.178D+00 0.320D+00 0.470D+00
 Coeff-En:   0.000D+00 0.000D+00 0.000D+00 0.000D+00 0.100D+01
 Coeff:     -0.232D-01 0.536D-01 0.172D+00 0.308D+00 0.490D+00
 Gap=     0.214 Goal=   None    Shift=    0.000
 RMSDP=2.71D-04 MaxDP=1.09D-02 DE=-4.00D-02 OVMax= 1.54D-02

 Cycle   6  Pass 0  IDiag  1:
 RMSU=  1.22D-04    CP:  1.01D+00  1.01D+00  5.55D-01  5.71D-01  5.34D-01
 E= -1123.30261028499     Delta-E=       -0.002116645969 Rises=F Damp=F
 DIIS: error= 7.77D-04 at cycle   6 NSaved=   6.
 NSaved= 6 IEnMin= 6 EnMin= -1123.30261028499     IErMin= 6 ErrMin= 7.77D-04
 ErrMax= 7.77D-04  0.00D+00 EMaxC= 1.00D-01 BMatC= 2.26D-04 BMatP= 2.50D-03
 IDIUse=3 WtCom= 9.92D-01 WtEn= 7.77D-03
 Coeff-Com: -0.316D-02 0.513D-02 0.370D-01 0.929D-01 0.286D+00 0.582D+00
 Coeff-En:   0.000D+00 0.000D+00 0.000D+00 0.000D+00 0.361D-01 0.964D+00
 Coeff:     -0.313D-02 0.509D-02 0.367D-01 0.922D-01 0.284D+00 0.585D+00
 Gap=     0.211 Goal=   None    Shift=    0.000
 RMSDP=7.30D-05 MaxDP=3.04D-03 DE=-2.12D-03 OVMax= 4.05D-03

 Cycle   7  Pass 0  IDiag  1:
 RMSU=  4.77D-05    CP:  1.01D+00  1.01D+00  5.60D-01  5.71D-01  6.00D-01
                    CP:  6.17D-01
 E= -1123.30276731156     Delta-E=       -0.000157026570 Rises=F Damp=F
 DIIS: error= 3.30D-04 at cycle   7 NSaved=   7.
 NSaved= 7 IEnMin= 7 EnMin= -1123.30276731156     IErMin= 7 ErrMin= 3.30D-04
 ErrMax= 3.30D-04  0.00D+00 EMaxC= 1.00D-01 BMatC= 3.44D-05 BMatP= 2.26D-04
 IDIUse=3 WtCom= 9.97D-01 WtEn= 3.30D-03
 Coeff-Com:  0.819D-03-0.259D-02-0.689D-04 0.136D-01 0.111D+00 0.365D+00
 Coeff-Com:  0.512D+00
 Coeff-En:   0.000D+00 0.000D+00 0.000D+00 0.000D+00 0.000D+00 0.103D+00
 Coeff-En:   0.897D+00
 Coeff:      0.817D-03-0.258D-02-0.686D-04 0.135D-01 0.110D+00 0.365D+00
 Coeff:      0.513D+00
 Gap=     0.210 Goal=   None    Shift=    0.000
 RMSDP=2.73D-05 MaxDP=1.12D-03 DE=-1.57D-04 OVMax= 1.56D-03

 Cycle   8  Pass 0  IDiag  1:
 RMSU=  1.37D-05    CP:  1.01D+00  1.01D+00  5.60D-01  5.69D-01  6.15D-01
                    CP:  6.72D-01  5.58D-01
 E= -1123.30279393495     Delta-E=       -0.000026623392 Rises=F Damp=F
 DIIS: error= 1.07D-04 at cycle   8 NSaved=   8.
 NSaved= 8 IEnMin= 8 EnMin= -1123.30279393495     IErMin= 8 ErrMin= 1.07D-04
 ErrMax= 1.07D-04  0.00D+00 EMaxC= 1.00D-01 BMatC= 2.56D-06 BMatP= 3.44D-05
 IDIUse=3 WtCom= 9.99D-01 WtEn= 1.07D-03
 Coeff-Com:  0.721D-03-0.192D-02-0.249D-02 0.229D-02 0.497D-01 0.189D+00
 Coeff-Com:  0.316D+00 0.447D+00
 Coeff-En:   0.000D+00 0.000D+00 0.000D+00 0.000D+00 0.000D+00 0.000D+00
 Coeff-En:   0.000D+00 0.100D+01
 Coeff:      0.720D-03-0.192D-02-0.249D-02 0.229D-02 0.497D-01 0.188D+00
 Coeff:      0.316D+00 0.447D+00
 Gap=     0.211 Goal=   None    Shift=    0.000
 RMSDP=8.20D-06 MaxDP=2.05D-04 DE=-2.66D-05 OVMax= 4.76D-04

 Initial convergence to 1.0D-05 achieved.  Increase integral accuracy.
 Cycle   9  Pass 1  IDiag  1:
 E= -1123.30279240446     Delta-E=        0.000001530491 Rises=F Damp=F
 DIIS: error= 2.88D-05 at cycle   1 NSaved=   1.
 NSaved= 1 IEnMin= 1 EnMin= -1123.30279240446     IErMin= 1 ErrMin= 2.88D-05
 ErrMax= 2.88D-05  0.00D+00 EMaxC= 1.00D-01 BMatC= 2.37D-07 BMatP= 2.37D-07
 IDIUse=1 WtCom= 1.00D+00 WtEn= 0.00D+00
 Coeff-Com:  0.100D+01
 Coeff:      0.100D+01
 Gap=     0.210 Goal=   None    Shift=    0.000
 RMSDP=8.20D-06 MaxDP=2.05D-04 DE= 1.53D-06 OVMax= 2.86D-04

 Cycle  10  Pass 1  IDiag  1:
 RMSU=  1.28D-05    CP:  1.00D+00
 E= -1123.30279211493     Delta-E=        0.000000289531 Rises=F Damp=F
 DIIS: error= 5.64D-05 at cycle   2 NSaved=   2.
 NSaved= 2 IEnMin= 1 EnMin= -1123.30279240446     IErMin= 1 ErrMin= 2.88D-05
 ErrMax= 5.64D-05  0.00D+00 EMaxC= 1.00D-01 BMatC= 5.62D-07 BMatP= 2.37D-07
 IDIUse=1 WtCom= 1.00D+00 WtEn= 0.00D+00
 Coeff-Com:  0.620D+00 0.380D+00
 Coeff:      0.620D+00 0.380D+00
 Gap=     0.210 Goal=   None    Shift=    0.000
 RMSDP=3.62D-06 MaxDP=1.33D-04 DE= 2.90D-07 OVMax= 2.10D-04

 Cycle  11  Pass 1  IDiag  1:
 RMSU=  3.43D-06    CP:  1.00D+00  9.10D-01
 E= -1123.30279258914     Delta-E=       -0.000000474214 Rises=F Damp=F
 DIIS: error= 1.08D-05 at cycle   3 NSaved=   3.
 NSaved= 3 IEnMin= 3 EnMin= -1123.30279258914     IErMin= 3 ErrMin= 1.08D-05
 ErrMax= 1.08D-05  0.00D+00 EMaxC= 1.00D-01 BMatC= 2.36D-08 BMatP= 2.37D-07
 IDIUse=1 WtCom= 1.00D+00 WtEn= 0.00D+00
 Coeff-Com:  0.111D+00 0.182D+00 0.707D+00
 Coeff:      0.111D+00 0.182D+00 0.707D+00
 Gap=     0.210 Goal=   None    Shift=    0.000
 RMSDP=8.86D-07 MaxDP=3.37D-05 DE=-4.74D-07 OVMax= 4.43D-05

 Cycle  12  Pass 1  IDiag  1:
 RMSU=  6.28D-07    CP:  1.00D+00  9.33D-01  8.40D-01
 E= -1123.30279260458     Delta-E=       -0.000000015437 Rises=F Damp=F
 DIIS: error= 4.39D-06 at cycle   4 NSaved=   4.
 NSaved= 4 IEnMin= 4 EnMin= -1123.30279260458     IErMin= 4 ErrMin= 4.39D-06
 ErrMax= 4.39D-06  0.00D+00 EMaxC= 1.00D-01 BMatC= 6.97D-09 BMatP= 2.36D-08
 IDIUse=1 WtCom= 1.00D+00 WtEn= 0.00D+00
 Coeff-Com:  0.846D-02 0.778D-01 0.456D+00 0.458D+00
 Coeff:      0.846D-02 0.778D-01 0.456D+00 0.458D+00
 Gap=     0.210 Goal=   None    Shift=    0.000
 RMSDP=3.46D-07 MaxDP=1.35D-05 DE=-1.54D-08 OVMax= 2.09D-05

 Cycle  13  Pass 1  IDiag  1:
 RMSU=  1.78D-07    CP:  1.00D+00  9.34D-01  8.54D-01  5.34D-01
 E= -1123.30279260992     Delta-E=       -0.000000005340 Rises=F Damp=F
 DIIS: error= 1.04D-06 at cycle   5 NSaved=   5.
 NSaved= 5 IEnMin= 5 EnMin= -1123.30279260992     IErMin= 5 ErrMin= 1.04D-06
 ErrMax= 1.04D-06  0.00D+00 EMaxC= 1.00D-01 BMatC= 3.52D-10 BMatP= 6.97D-09
 IDIUse=1 WtCom= 1.00D+00 WtEn= 0.00D+00
 Coeff-Com: -0.206D-02 0.325D-01 0.220D+00 0.264D+00 0.486D+00
 Coeff:     -0.206D-02 0.325D-01 0.220D+00 0.264D+00 0.486D+00
 Gap=     0.210 Goal=   None    Shift=    0.000
 RMSDP=9.69D-08 MaxDP=2.66D-06 DE=-5.34D-09 OVMax= 5.52D-06

 Cycle  14  Pass 1  IDiag  1:
 RMSU=  5.93D-08    CP:  1.00D+00  9.34D-01  8.59D-01  5.27D-01  5.81D-01
 E= -1123.30279261021     Delta-E=       -0.000000000292 Rises=F Damp=F
 DIIS: error= 3.29D-07 at cycle   6 NSaved=   6.
 NSaved= 6 IEnMin= 6 EnMin= -1123.30279261021     IErMin= 6 ErrMin= 3.29D-07
 ErrMax= 3.29D-07  0.00D+00 EMaxC= 1.00D-01 BMatC= 2.49D-11 BMatP= 3.52D-10
 IDIUse=1 WtCom= 1.00D+00 WtEn= 0.00D+00
 Coeff-Com: -0.187D-02 0.125D-01 0.933D-01 0.115D+00 0.273D+00 0.508D+00
 Coeff:     -0.187D-02 0.125D-01 0.933D-01 0.115D+00 0.273D+00 0.508D+00
 Gap=     0.210 Goal=   None    Shift=    0.000
 RMSDP=2.74D-08 MaxDP=8.37D-07 DE=-2.92D-10 OVMax= 1.66D-06

 Cycle  15  Pass 1  IDiag  1:
 RMSU=  2.12D-08    CP:  1.00D+00  9.34D-01  8.59D-01  5.32D-01  6.39D-01
                    CP:  7.73D-01
 E= -1123.30279261024     Delta-E=       -0.000000000024 Rises=F Damp=F
 DIIS: error= 9.90D-08 at cycle   7 NSaved=   7.
 NSaved= 7 IEnMin= 7 EnMin= -1123.30279261024     IErMin= 7 ErrMin= 9.90D-08
 ErrMax= 9.90D-08  0.00D+00 EMaxC= 1.00D-01 BMatC= 2.46D-12 BMatP= 2.49D-11
 IDIUse=1 WtCom= 1.00D+00 WtEn= 0.00D+00
 Coeff-Com: -0.654D-03 0.390D-03 0.974D-02 0.118D-01 0.588D-01 0.245D+00
 Coeff-Com:  0.675D+00
 Coeff:     -0.654D-03 0.390D-03 0.974D-02 0.118D-01 0.588D-01 0.245D+00
 Coeff:      0.675D+00
 Gap=     0.210 Goal=   None    Shift=    0.000
 RMSDP=1.11D-08 MaxDP=2.68D-07 DE=-2.36D-11 OVMax= 7.42D-07

 Cycle  16  Pass 1  IDiag  1:
 RMSU=  8.90D-09    CP:  1.00D+00  9.34D-01  8.60D-01  5.32D-01  6.39D-01
                    CP:  8.59D-01  9.13D-01
 E= -1123.30279261024     Delta-E=       -0.000000000007 Rises=F Damp=F
 DIIS: error= 6.82D-08 at cycle   8 NSaved=   8.
 NSaved= 8 IEnMin= 8 EnMin= -1123.30279261024     IErMin= 8 ErrMin= 6.82D-08
 ErrMax= 6.82D-08  0.00D+00 EMaxC= 1.00D-01 BMatC= 9.94D-13 BMatP= 2.46D-12
 IDIUse=1 WtCom= 1.00D+00 WtEn= 0.00D+00
 Coeff-Com: -0.663D-04-0.184D-02-0.907D-02-0.120D-01-0.931D-02 0.641D-01
 Coeff-Com:  0.453D+00 0.515D+00
 Coeff:     -0.663D-04-0.184D-02-0.907D-02-0.120D-01-0.931D-02 0.641D-01
 Coeff:      0.453D+00 0.515D+00
 Gap=     0.210 Goal=   None    Shift=    0.000
 RMSDP=5.20D-09 MaxDP=2.07D-07 DE=-7.28D-12 OVMax= 3.67D-07

 SCF Done:  E(RAPFD) =  -1123.30279261     A.U. after   16 cycles
            NFock= 16  Conv=0.52D-08     -V/T= 2.0068
 KE= 1.115701836811D+03 PE=-4.667339336616D+03 EE= 1.416302325445D+03
 Leave Link  502 at Fri Oct  4 19:58:01 2024, MaxMem=  2097152000 cpu:             182.6 elap:              11.5
 (Enter /uufs/chpc.utah.edu/sys/installdir/gaussian16/C01/AVX/g16/l601.exe)
 Copying SCF densities to generalized density rwf, IOpCl= 0 IROHF=0.

 **********************************************************************

            Population analysis using the SCF Density.

 **********************************************************************

 Orbital symmetries:
       Occupied  (A) (A) (A) (A) (A) (A) (A) (A) (A) (A) (A) (A)
                 (A) (A) (A) (A) (A) (A) (A) (A) (A) (A) (A) (A)
                 (A) (A) (A) (A) (A) (A) (A) (A) (A) (A) (A) (A)
                 (A) (A) (A) (A) (A) (A) (A) (A) (A) (A) (A) (A)
                 (A) (A) (A) (A) (A) (A) (A) (A)
       Virtual   (A) (A) (A) (A) (A) (A) (A) (A) (A) (A) (A) (A)
                 (A) (A) (A) (A) (A) (A) (A) (A) (A) (A) (A) (A)
                 (A) (A) (A) (A) (A) (A) (A) (A) (A) (A) (A) (A)
                 (A) (A) (A) (A) (A) (A) (A) (A) (A) (A) (A) (A)
                 (A) (A) (A) (A) (A) (A) (A) (A) (A) (A) (A) (A)
                 (A) (A) (A) (A) (A) (A) (A) (A) (A) (A) (A) (A)
                 (A) (A) (A) (A) (A) (A) (A) (A) (A) (A) (A) (A)
                 (A) (A) (A) (A) (A) (A) (A) (A) (A) (A) (A) (A)
                 (A) (A) (A) (A) (A) (A) (A) (A) (A) (A) (A) (A)
                 (A) (A) (A) (A) (A) (A) (A) (A) (A) (A) (A) (A)
                 (A) (A) (A) (A) (A) (A) (A) (A) (A) (A) (A) (A)
                 (A) (A) (A) (A) (A) (A) (A) (A) (A) (A) (A) (A)
                 (A) (A) (A) (A) (A) (A) (A) (A) (A) (A) (A) (A)
                 (A) (A) (A) (A) (A) (A) (A) (A) (A) (A) (A) (A)
                 (A) (A)
 The electronic state is 1-A.
 Alpha  occ. eigenvalues --  -89.24281 -24.80191 -19.26959 -19.21770 -19.21703
 Alpha  occ. eigenvalues --  -19.20939 -14.42217 -10.37281 -10.32576 -10.29460
 Alpha  occ. eigenvalues --  -10.28299 -10.28023 -10.27738 -10.27573  -8.22132
 Alpha  occ. eigenvalues --   -6.17093  -6.16693  -6.16638  -1.29398  -1.15088
 Alpha  occ. eigenvalues --   -1.13800  -1.06353  -1.05448  -1.00636  -0.87323
 Alpha  occ. eigenvalues --   -0.84801  -0.78020  -0.73477  -0.69339  -0.67104
 Alpha  occ. eigenvalues --   -0.61814  -0.60735  -0.57117  -0.55596  -0.53146
 Alpha  occ. eigenvalues --   -0.52244  -0.51920  -0.50977  -0.49438  -0.48989
 Alpha  occ. eigenvalues --   -0.46553  -0.45765  -0.45254  -0.44581  -0.43328
 Alpha  occ. eigenvalues --   -0.42906  -0.39361  -0.39242  -0.36221  -0.35636
 Alpha  occ. eigenvalues --   -0.34149  -0.33715  -0.33180  -0.32465  -0.31038
 Alpha  occ. eigenvalues --   -0.30603
 Alpha virt. eigenvalues --   -0.09555  -0.06346  -0.00230   0.00793   0.06115
 Alpha virt. eigenvalues --    0.08919   0.10423   0.11166   0.11532   0.12028
 Alpha virt. eigenvalues --    0.14011   0.14777   0.16533   0.17098   0.17305
 Alpha virt. eigenvalues --    0.21316   0.22581   0.25271   0.26773   0.27551
 Alpha virt. eigenvalues --    0.30577   0.32898   0.34653   0.37688   0.38869
 Alpha virt. eigenvalues --    0.39525   0.44207   0.46669   0.48109   0.49923
 Alpha virt. eigenvalues --    0.52308   0.53634   0.55340   0.56240   0.56514
 Alpha virt. eigenvalues --    0.57236   0.57824   0.58100   0.60288   0.60638
 Alpha virt. eigenvalues --    0.64792   0.66424   0.69464   0.70293   0.74133
 Alpha virt. eigenvalues --    0.74778   0.76423   0.78660   0.79792   0.80941
 Alpha virt. eigenvalues --    0.81467   0.82085   0.83369   0.83996   0.84978
 Alpha virt. eigenvalues --    0.85894   0.86730   0.87228   0.88543   0.91360
 Alpha virt. eigenvalues --    0.93428   0.95235   0.96895   0.97554   0.98596
 Alpha virt. eigenvalues --    0.99008   1.01932   1.02312   1.04359   1.05974
 Alpha virt. eigenvalues --    1.07940   1.08389   1.12640   1.15986   1.17766
 Alpha virt. eigenvalues --    1.19062   1.21168   1.24128   1.25445   1.26615
 Alpha virt. eigenvalues --    1.27649   1.29943   1.32038   1.34062   1.35619
 Alpha virt. eigenvalues --    1.36384   1.40661   1.41911   1.42789   1.45576
 Alpha virt. eigenvalues --    1.47329   1.48803   1.50085   1.57494   1.58519
 Alpha virt. eigenvalues --    1.60655   1.62813   1.68210   1.68588   1.72525
 Alpha virt. eigenvalues --    1.73384   1.76098   1.76860   1.77884   1.78355
 Alpha virt. eigenvalues --    1.78483   1.81229   1.82472   1.84333   1.84883
 Alpha virt. eigenvalues --    1.84917   1.85790   1.87808   1.89598   1.93960
 Alpha virt. eigenvalues --    1.96327   1.98356   2.00178   2.01290   2.05079
 Alpha virt. eigenvalues --    2.05830   2.08871   2.10206   2.11161   2.12625
 Alpha virt. eigenvalues --    2.13166   2.15173   2.16850   2.19182   2.23109
 Alpha virt. eigenvalues --    2.25682   2.26167   2.29077   2.29823   2.32767
 Alpha virt. eigenvalues --    2.35585   2.42444   2.45592   2.49889   2.58464
 Alpha virt. eigenvalues --    2.59505   2.60388   2.62513   2.66281   2.69455
 Alpha virt. eigenvalues --    2.72516   2.77349   2.77913   2.80819   2.81029
 Alpha virt. eigenvalues --    2.85684   2.92647   2.98755   3.07566   3.17934
 Alpha virt. eigenvalues --    3.34921   3.76950   3.87803   3.94913   3.95587
 Alpha virt. eigenvalues --    4.05372   4.07624   4.13494   4.22199   4.25260
 Alpha virt. eigenvalues --    4.29352   4.37954   4.50188   4.57167   4.65046
          Condensed to atoms (all electrons):
               1          2          3          4          5          6
     1  O    8.062337   0.550872  -0.078513   0.000331  -0.089936   0.004162
     2  C    0.550872   4.319544   0.267882  -0.026077   0.319544  -0.047156
     3  O   -0.078513   0.267882   8.257983   0.197221  -0.098377   0.004572
     4  C    0.000331  -0.026077   0.197221   4.989436   0.008155  -0.000196
     5  C   -0.089936   0.319544  -0.098377   0.008155   5.111172   0.510321
     6  C    0.004162  -0.047156   0.004572  -0.000196   0.510321   4.985252
     7  C    0.000782   0.007412  -0.000050   0.000001  -0.020404   0.476518
     8  C   -0.000015   0.000305  -0.000007   0.000001  -0.036274  -0.035292
     9  S    0.000000  -0.000007   0.000000  -0.000000   0.000105   0.001368
    10  F    0.000000   0.000000  -0.000000   0.000000  -0.000004  -0.000014
    11  O   -0.000000  -0.000000  -0.000000  -0.000000   0.000004   0.000048
    12  O   -0.000000  -0.000000  -0.000000   0.000000  -0.000001   0.000097
    13  N   -0.000030   0.004448   0.000229   0.000001  -0.007776  -0.042605
    14  C    0.003504  -0.025032   0.002800  -0.000232   0.426345  -0.066745
    15  H    0.000441   0.003894  -0.029692   0.379431   0.000086   0.000002
    16  H    0.001582  -0.003780  -0.032665   0.381149  -0.000303   0.000004
    17  H    0.010774  -0.006961  -0.028670   0.371490   0.000044  -0.000012
    18  H    0.011002  -0.006581   0.000246  -0.000014  -0.038105   0.367271
    19  H   -0.000000  -0.000054   0.000000  -0.000000   0.003501  -0.030230
    20  H    0.000060  -0.002847   0.008337  -0.000258  -0.056938   0.003222
               7          8          9         10         11         12
     1  O    0.000782  -0.000015   0.000000   0.000000  -0.000000  -0.000000
     2  C    0.007412   0.000305  -0.000007   0.000000  -0.000000  -0.000000
     3  O   -0.000050  -0.000007   0.000000  -0.000000  -0.000000  -0.000000
     4  C    0.000001   0.000001  -0.000000   0.000000  -0.000000   0.000000
     5  C   -0.020404  -0.036274   0.000105  -0.000004   0.000004  -0.000001
     6  C    0.476518  -0.035292   0.001368  -0.000014   0.000048   0.000097
     7  C    5.007511   0.447772  -0.022566   0.000807  -0.000031   0.000034
     8  C    0.447772   5.305168   0.191289  -0.030056  -0.055469  -0.054595
     9  S   -0.022566   0.191289  13.461793   0.220475   0.456264   0.454103
    10  F    0.000807  -0.030056   0.220475   9.140639  -0.035858  -0.035767
    11  O   -0.000031  -0.055469   0.456264  -0.035858   8.155628  -0.041339
    12  O    0.000034  -0.054595   0.454103  -0.035767  -0.041339   8.158122
    13  N   -0.023786   0.346230  -0.021695   0.003967  -0.000163   0.000219
    14  C   -0.034866  -0.065878   0.000245   0.000183  -0.000143  -0.000117
    15  H   -0.000000   0.000000  -0.000000   0.000000  -0.000000   0.000000
    16  H   -0.000000  -0.000000  -0.000000  -0.000000   0.000000  -0.000000
    17  H    0.000000  -0.000000  -0.000000   0.000000  -0.000000  -0.000000
    18  H   -0.039471   0.004999  -0.000020   0.000000   0.000001   0.000001
    19  H    0.362570  -0.035550   0.002036   0.000009   0.000177   0.000566
    20  H    0.000188   0.006065  -0.000163   0.000003   0.000000   0.000000
              13         14         15         16         17         18
     1  O   -0.000030   0.003504   0.000441   0.001582   0.010774   0.011002
     2  C    0.004448  -0.025032   0.003894  -0.003780  -0.006961  -0.006581
     3  O    0.000229   0.002800  -0.029692  -0.032665  -0.028670   0.000246
     4  C    0.000001  -0.000232   0.379431   0.381149   0.371490  -0.000014
     5  C   -0.007776   0.426345   0.000086  -0.000303   0.000044  -0.038105
     6  C   -0.042605  -0.066745   0.000002   0.000004  -0.000012   0.367271
     7  C   -0.023786  -0.034866  -0.000000  -0.000000   0.000000  -0.039471
     8  C    0.346230  -0.065878   0.000000  -0.000000  -0.000000   0.004999
     9  S   -0.021695   0.000245  -0.000000  -0.000000  -0.000000  -0.000020
    10  F    0.003967   0.000183   0.000000  -0.000000   0.000000   0.000000
    11  O   -0.000163  -0.000143  -0.000000   0.000000  -0.000000   0.000001
    12  O    0.000219  -0.000117   0.000000  -0.000000  -0.000000   0.000001
    13  N    6.819441   0.407463  -0.000000   0.000000   0.000000  -0.000129
    14  C    0.407463   4.937931  -0.000061   0.000038   0.000065   0.004412
    15  H   -0.000000  -0.000061   0.506314  -0.032188  -0.028587  -0.000000
    16  H    0.000000   0.000038  -0.032188   0.517416  -0.030612  -0.000000
    17  H    0.000000   0.000065  -0.028587  -0.030612   0.502688  -0.000004
    18  H   -0.000129   0.004412  -0.000000  -0.000000  -0.000004   0.468344
    19  H    0.003387   0.000255   0.000000   0.000000  -0.000000  -0.004018
    20  H   -0.049299   0.384146  -0.000000   0.000013   0.000021  -0.000115
              19         20
     1  O   -0.000000   0.000060
     2  C   -0.000054  -0.002847
     3  O    0.000000   0.008337
     4  C   -0.000000  -0.000258
     5  C    0.003501  -0.056938
     6  C   -0.030230   0.003222
     7  C    0.362570   0.000188
     8  C   -0.035550   0.006065
     9  S    0.002036  -0.000163
    10  F    0.000009   0.000003
    11  O    0.000177   0.000000
    12  O    0.000566   0.000000
    13  N    0.003387  -0.049299
    14  C    0.000255   0.384146
    15  H    0.000000  -0.000000
    16  H    0.000000   0.000013
    17  H   -0.000000   0.000021
    18  H   -0.004018  -0.000115
    19  H    0.465262   0.000019
    20  H    0.000019   0.481664
 Mulliken charges:
               1
     1  O   -0.477354
     2  C    0.644595
     3  O   -0.471295
     4  C   -0.300438
     5  C   -0.031157
     6  C   -0.130586
     7  C   -0.162421
     8  C    0.011309
     9  S    1.256774
    10  F   -0.264383
    11  O   -0.479118
    12  O   -0.481321
    13  N   -0.439903
    14  C    0.025689
    15  H    0.200361
    16  H    0.199348
    17  H    0.209764
    18  H    0.232181
    19  H    0.232071
    20  H    0.225883
 Sum of Mulliken charges =  -0.00000
 Mulliken charges with hydrogens summed into heavy atoms:
               1
     1  O   -0.477354
     2  C    0.644595
     3  O   -0.471295
     4  C    0.309035
     5  C   -0.031157
     6  C    0.101595
     7  C    0.069650
     8  C    0.011309
     9  S    1.256774
    10  F   -0.264383
    11  O   -0.479118
    12  O   -0.481321
    13  N   -0.439903
    14  C    0.251571
 Electronic spatial extent (au):  <R**2>=           4119.3647
 Charge=              0.0000 electrons
 Dipole moment (field-independent basis, Debye):
    X=              5.7507    Y=             -0.4347    Z=             -0.2695  Tot=              5.7734
 Quadrupole moment (field-independent basis, Debye-Ang):
   XX=            -87.9503   YY=            -82.0775   ZZ=            -88.6488
   XY=             -8.3204   XZ=             -0.0370   YZ=             -0.8020
 Traceless Quadrupole moment (field-independent basis, Debye-Ang):
   XX=             -1.7248   YY=              4.1480   ZZ=             -2.4233
   XY=             -8.3204   XZ=             -0.0370   YZ=             -0.8020
 Octapole moment (field-independent basis, Debye-Ang**2):
  XXX=            111.6222  YYY=             -0.2262  ZZZ=              1.3696  XYY=             -9.9154
  XXY=            -60.7319  XXZ=              0.4077  XZZ=             11.0762  YZZ=             -6.9884
  YYZ=             -0.7180  XYZ=             -2.3050
 Hexadecapole moment (field-independent basis, Debye-Ang**3):
 XXXX=          -3885.9434 YYYY=           -504.8714 ZZZZ=           -196.5998 XXXY=           -143.9674
 XXXZ=            -11.4780 YYYX=             -8.9369 YYYZ=              0.2931 ZZZX=              7.7158
 ZZZY=             -0.4525 XXYY=           -806.4856 XXZZ=           -768.4579 YYZZ=           -125.8101
 XXYZ=             -8.7433 YYXZ=             -5.4292 ZZXY=             18.7936
 N-N= 1.012032381750D+03 E-N=-4.667339326437D+03  KE= 1.115701836811D+03
 No NMR shielding tensors so no spin-rotation constants.
 Leave Link  601 at Fri Oct  4 19:58:01 2024, MaxMem=  2097152000 cpu:               2.0 elap:               0.2
 (Enter /uufs/chpc.utah.edu/sys/installdir/gaussian16/C01/AVX/g16/l701.exe)
 ... and contract with generalized density number  0.
 Compute integral first derivatives.
 R6APFD:  NTU= -4 IXU= 1 FactS= 1.050
 R6Disp: Adding Petersson-Frisch dispersion energy 1st derivatives to the gradient.
 Leave Link  701 at Fri Oct  4 19:58:02 2024, MaxMem=  2097152000 cpu:               2.4 elap:               0.2
 (Enter /uufs/chpc.utah.edu/sys/installdir/gaussian16/C01/AVX/g16/l702.exe)
 L702 exits ... SP integral derivatives will be done elsewhere.
 Leave Link  702 at Fri Oct  4 19:58:02 2024, MaxMem=  2097152000 cpu:               0.8 elap:               0.1
 (Enter /uufs/chpc.utah.edu/sys/installdir/gaussian16/C01/AVX/g16/l703.exe)
 Integral derivatives from FoFJK, PRISM(SPDF).
 Compute integral first derivatives, UseDBF=F ICtDFT=           0.
 Calling FoFJK, ICntrl=      2127 FMM=F ISym2X=0 I1Cent= 0 IOpClX= 0 NMat=1 NMatS=1 NMatT=0.
 FoFJK:  IHMeth= 1 ICntrl=    2127 DoSepK=F KAlg= 0 I1Cent=           0 FoldK=F
 IRaf=         0 NMat=       1 IRICut=       1 DoRegI=T DoRafI=F ISym2E= 0 IDoP0=0 IntGTp=1.
 FoFCou: FMM=F IPFlag=           0 FMFlag=      100000 FMFlg1=         800
         NFxFlg=           0 DoJE=F BraDBF=F KetDBF=F FulRan=T
         wScrn=  0.000000 ICntrl=      2127 IOpCl=  0 I1Cent=           0 NGrid=           0
         NMat0=    1 NMatS0=      1 NMatT0=    0 NMatD0=    1 NMtDS0=    0 NMtDT0=    0
 Symmetry not used in FoFCou.
 Leave Link  703 at Fri Oct  4 19:58:04 2024, MaxMem=  2097152000 cpu:              42.0 elap:               2.7
 (Enter /uufs/chpc.utah.edu/sys/installdir/gaussian16/C01/AVX/g16/l716.exe)
 Dipole        = 2.26250597D+00-1.71025998D-01-1.06046888D-01
 ***** Axes restored to original set *****
 -------------------------------------------------------------------
 Center     Atomic                   Forces (Hartrees/Bohr)
 Number     Number              X              Y              Z
 -------------------------------------------------------------------
      1        8          -0.001385935   -0.018341186    0.005683876
      2        6          -0.003253955    0.008996206    0.001998971
      3        8           0.003889414    0.013604020   -0.001925569
      4        6          -0.002986896   -0.000199077    0.007152541
      5        6           0.005819542    0.000936889   -0.009610239
      6        6          -0.000289213   -0.001588477   -0.001438221
      7        6           0.000745730    0.003483022   -0.001836257
      8        6          -0.023733148   -0.025311617    0.039553542
      9       16           0.015261808    0.009039290   -0.030915199
     10        9          -0.005002659    0.003596437    0.012399678
     11        8           0.003797499   -0.001300220    0.006750029
     12        8          -0.005586629    0.000091750    0.000866336
     13        7           0.004696197    0.029384615   -0.006546614
     14        6           0.006064811   -0.022269506   -0.014842953
     15        1           0.001728786   -0.003541270   -0.004465037
     16        1           0.001401133    0.002801121   -0.000566514
     17        1          -0.000752651    0.000077181   -0.004579128
     18        1          -0.001428415   -0.001932219    0.002408713
     19        1           0.000430241   -0.000354515   -0.000029451
     20        1           0.000584341    0.002827556   -0.000058504
 -------------------------------------------------------------------
 Cartesian Forces:  Max     0.039553542 RMS     0.010778777
 Leave Link  716 at Fri Oct  4 19:58:04 2024, MaxMem=  2097152000 cpu:               0.7 elap:               0.1
 (Enter /uufs/chpc.utah.edu/sys/installdir/gaussian16/C01/AVX/g16/l103.exe)

 GradGradGradGradGradGradGradGradGradGradGradGradGradGradGradGradGradGrad
 Berny optimization.
 FormGI is forming the generalized inverse of G from B-inverse, IUseBI=4.
 Internal  Forces:  Max     0.033393428 RMS     0.006754120
 Search for a local minimum.
 Step number   1 out of a maximum of   97
 All quantities printed in internal units (Hartrees-Bohrs-Radians)
 RMS Force = .67541D-02 SwitMx=.10000D-02 MixMth= 1
 Mixed Optimization -- RFO/linear search
 Second derivative matrix not updated -- first step.
 ITU=  0
     Eigenvalues ---    0.00664   0.01023   0.01291   0.01472   0.01571
     Eigenvalues ---    0.01790   0.02112   0.02133   0.02208   0.02215
     Eigenvalues ---    0.02217   0.02244   0.02295   0.10038   0.10510
     Eigenvalues ---    0.11299   0.12546   0.15993   0.15997   0.15998
     Eigenvalues ---    0.16000   0.16000   0.16000   0.22327   0.23393
     Eigenvalues ---    0.24551   0.24976   0.24979   0.24995   0.25000
     Eigenvalues ---    0.25000   0.25000   0.25000   0.25000   0.27945
     Eigenvalues ---    0.34295   0.34353   0.34411   0.34502   0.34925
     Eigenvalues ---    0.35102   0.35342   0.40945   0.42914   0.43691
     Eigenvalues ---    0.46377   0.47483   0.51480   0.52703   0.53919
     Eigenvalues ---    0.54094   0.95291   0.95341   0.95891
 RFO step:  Lambda=-1.21939811D-02 EMin= 6.63730898D-03
 Linear search not attempted -- first point.
 Iteration  1 RMS(Cart)=  0.08032609 RMS(Int)=  0.00280647
 Iteration  2 RMS(Cart)=  0.00428794 RMS(Int)=  0.00031353
 Iteration  3 RMS(Cart)=  0.00000949 RMS(Int)=  0.00031344
 Iteration  4 RMS(Cart)=  0.00000001 RMS(Int)=  0.00031344
 ITry= 1 IFail=0 DXMaxC= 2.51D-01 DCOld= 1.00D+10 DXMaxT= 3.00D-01 DXLimC= 3.00D+00 Rises=F
 Variable       Old X    -DE/DX   Delta X   Delta X   Delta X     New X
                                 (Linear)    (Quad)   (Total)
    R1        2.30565  -0.01858   0.00000  -0.01924  -0.01924   2.28640
    R2        2.55946  -0.01162   0.00000  -0.02102  -0.02102   2.53845
    R3        2.79791   0.00486   0.00000   0.01360   0.01360   2.81151
    R4        2.70289  -0.00195   0.00000  -0.00461  -0.00461   2.69828
    R5        2.06641  -0.00160   0.00000  -0.00448  -0.00448   2.06193
    R6        2.06739  -0.00039   0.00000  -0.00110  -0.00110   2.06629
    R7        2.06835  -0.00156   0.00000  -0.00440  -0.00440   2.06395
    R8        2.64874  -0.00771   0.00000  -0.01458  -0.01461   2.63413
    R9        2.63137   0.00396   0.00000   0.00854   0.00849   2.63986
   R10        2.63408  -0.00729   0.00000  -0.01371  -0.01368   2.62040
   R11        2.05796  -0.00217   0.00000  -0.00601  -0.00601   2.05195
   R12        2.62050   0.00111   0.00000   0.00178   0.00184   2.62234
   R13        2.05123   0.00007   0.00000   0.00019   0.00019   2.05142
   R14        3.35959   0.00359   0.00000   0.01232   0.01232   3.37191
   R15        2.57036  -0.02737   0.00000  -0.05223  -0.05220   2.51816
   R16        2.99805   0.00106   0.00000   0.00191   0.00191   2.99997
   R17        2.74286  -0.00776   0.00000  -0.00805  -0.00805   2.73481
   R18        2.74031  -0.00563   0.00000  -0.00580  -0.00580   2.73451
   R19        2.56424  -0.02176   0.00000  -0.04102  -0.04105   2.52319
   R20        2.05509  -0.00167   0.00000  -0.00461  -0.00461   2.05048
    A1        2.20432  -0.00923   0.00000  -0.03474  -0.03527   2.16905
    A2        2.14804   0.00218   0.00000   0.00875   0.00819   2.15623
    A3        1.93048   0.00709   0.00000   0.02750   0.02695   1.95743
    A4        2.00202   0.00288   0.00000   0.01099   0.01099   2.01300
    A5        1.88387  -0.00681   0.00000  -0.03688  -0.03696   1.84691
    A6        1.90912   0.00199   0.00000   0.01029   0.01027   1.91939
    A7        1.95433  -0.00316   0.00000  -0.01982  -0.01995   1.93439
    A8        1.89558   0.00362   0.00000   0.02408   0.02413   1.91971
    A9        1.88859   0.00597   0.00000   0.03696   0.03676   1.92535
   A10        1.93077  -0.00151   0.00000  -0.01360  -0.01366   1.91712
   A11        2.08370  -0.00399   0.00000  -0.01766  -0.01768   2.06602
   A12        2.13856   0.00322   0.00000   0.00988   0.00987   2.14843
   A13        2.06014   0.00078   0.00000   0.00843   0.00832   2.06846
   A14        2.09097  -0.00423   0.00000  -0.00978  -0.00983   2.08114
   A15        2.10038  -0.00058   0.00000  -0.01056  -0.01064   2.08974
   A16        2.09160   0.00482   0.00000   0.02080   0.02071   2.11231
   A17        2.04732  -0.00366   0.00000  -0.01217  -0.01215   2.03517
   A18        2.11552   0.00225   0.00000   0.00874   0.00861   2.12412
   A19        2.12005   0.00143   0.00000   0.00397   0.00384   2.12389
   A20        2.09431  -0.01200   0.00000  -0.04379  -0.04399   2.05032
   A21        2.18351   0.00572   0.00000   0.01915   0.01912   2.20263
   A22        2.00416   0.00631   0.00000   0.02607   0.02589   2.03005
   A23        1.87822  -0.03339   0.00000  -0.13705  -0.13774   1.74048
   A24        1.87807   0.00238   0.00000   0.01414   0.01317   1.89124
   A25        1.88114   0.00394   0.00000   0.02078   0.01995   1.90110
   A26        1.84403   0.00950   0.00000   0.02385   0.02273   1.86677
   A27        1.84462   0.00953   0.00000   0.02568   0.02502   1.86964
   A28        2.12539   0.00214   0.00000   0.02605   0.02503   2.15041
   A29        2.02062   0.00308   0.00000   0.00354   0.00357   2.02419
   A30        2.16315  -0.00166   0.00000  -0.00839  -0.00850   2.15465
   A31        2.12616  -0.00157   0.00000  -0.00960  -0.00963   2.11653
   A32        1.99371   0.00324   0.00000   0.01833   0.01830   2.01201
    D1        0.03155   0.00010   0.00000   0.00803   0.00742   0.03897
    D2       -3.08249  -0.00168   0.00000  -0.05291  -0.05230  -3.13479
    D3        0.06135  -0.00070   0.00000  -0.02925  -0.02960   0.03175
    D4       -3.03666  -0.00121   0.00000  -0.04727  -0.04752  -3.08418
    D5       -3.10675   0.00079   0.00000   0.02854   0.02879  -3.07796
    D6        0.07842   0.00028   0.00000   0.01052   0.01087   0.08929
    D7       -2.82290  -0.00031   0.00000  -0.01686  -0.01707  -2.83997
    D8        1.40080  -0.00185   0.00000  -0.03032  -0.03024   1.37056
    D9       -0.74597   0.00081   0.00000  -0.00676  -0.00664  -0.75261
   D10       -3.07338  -0.00136   0.00000  -0.03693  -0.03662  -3.11001
   D11        0.04439  -0.00053   0.00000  -0.01425  -0.01429   0.03011
   D12        0.02659  -0.00081   0.00000  -0.01965  -0.01946   0.00712
   D13       -3.13883   0.00002   0.00000   0.00303   0.00288  -3.13595
   D14        3.06890   0.00091   0.00000   0.03279   0.03300   3.10190
   D15       -0.05176   0.00028   0.00000   0.01171   0.01186  -0.03991
   D16       -0.02968   0.00053   0.00000   0.01563   0.01567  -0.01400
   D17        3.13285  -0.00010   0.00000  -0.00545  -0.00547   3.12738
   D18        0.00034   0.00009   0.00000   0.00569   0.00570   0.00604
   D19        3.11584   0.00095   0.00000   0.02873   0.02866  -3.13869
   D20       -3.11755  -0.00066   0.00000  -0.01645  -0.01650  -3.13405
   D21       -0.00206   0.00021   0.00000   0.00660   0.00646   0.00441
   D22        3.05737   0.00164   0.00000   0.04762   0.04727   3.10465
   D23       -0.02872   0.00063   0.00000   0.01381   0.01366  -0.01507
   D24       -0.05805   0.00076   0.00000   0.02443   0.02424  -0.03381
   D25        3.13904  -0.00026   0.00000  -0.00937  -0.00938   3.12966
   D26       -3.13224  -0.00048   0.00000  -0.02508  -0.02519   3.12576
   D27       -1.15234  -0.00450   0.00000  -0.05696  -0.05673  -1.20907
   D28        1.16889   0.00288   0.00000   0.00202   0.00220   1.17109
   D29       -0.04067   0.00049   0.00000   0.00545   0.00514  -0.03553
   D30        1.93923  -0.00353   0.00000  -0.02643  -0.02640   1.91283
   D31       -2.02273   0.00385   0.00000   0.03255   0.03253  -1.99020
   D32        0.02661  -0.00078   0.00000  -0.01784  -0.01764   0.00897
   D33       -3.06203  -0.00123   0.00000  -0.04812  -0.04895  -3.11097
   D34        0.00386   0.00018   0.00000   0.00249   0.00229   0.00615
   D35        3.12595   0.00072   0.00000   0.02185   0.02199  -3.13524
         Item               Value     Threshold  Converged?
 Maximum Force            0.033393     0.000450     NO 
 RMS     Force            0.006754     0.000300     NO 
 Maximum Displacement     0.250911     0.001800     NO 
 RMS     Displacement     0.080815     0.001200     NO 
 Predicted change in Energy=-6.481217D-03
 Lowest energy point so far.  Saving SCF results.
 GradGradGradGradGradGradGradGradGradGradGradGradGradGradGradGradGradGrad

 Leave Link  103 at Fri Oct  4 19:58:05 2024, MaxMem=  2097152000 cpu:               0.8 elap:               0.1
 (Enter /uufs/chpc.utah.edu/sys/installdir/gaussian16/C01/AVX/g16/l202.exe)
                          Input orientation:                          
 ---------------------------------------------------------------------
 Center     Atomic      Atomic             Coordinates (Angstroms)
 Number     Number       Type             X           Y           Z
 ---------------------------------------------------------------------
      1          8           0        2.277137    1.101371   -0.026168
      2          6           0        2.231058   -0.107530   -0.008209
      3          8           0        1.707238   -0.829821    0.995948
      4          6           0        1.140700   -0.070320    2.064122
      5          6           0        2.792019   -0.967690   -1.084760
      6          6           0        3.438391   -0.352013   -2.155350
      7          6           0        3.934668   -1.134005   -3.187345
      8          6           0        3.739788   -2.503605   -3.078327
      9         16           0        4.317784   -3.526809   -4.421022
     10          9           0        3.915444   -4.956677   -3.860844
     11          8           0        3.483661   -3.276261   -5.576814
     12          8           0        5.763386   -3.476224   -4.460958
     13          7           0        3.137365   -3.135166   -2.071392
     14          6           0        2.675242   -2.359749   -1.087536
     15          1           0        1.054500   -0.759233    2.905863
     16          1           0        0.150979    0.295988    1.777998
     17          1           0        1.785603    0.770979    2.327197
     18          1           0        3.544923    0.728485   -2.170839
     19          1           0        4.446953   -0.696872   -4.038772
     20          1           0        2.192382   -2.886049   -0.270694
 ---------------------------------------------------------------------
                    Distance matrix (angstroms):
                    1          2          3          4          5
     1  O    0.000000
     2  C    1.209913   0.000000
     3  O    2.258098   1.343288   0.000000
     4  C    2.652105   2.341969   1.427867   0.000000
     5  C    2.380490   1.487789   2.350554   3.667095   0.000000
     6  C    2.827411   2.475407   3.627102   4.812762   1.393922
     7  C    4.211574   3.750046   4.749096   6.042813   2.398785
     8  C    4.944782   4.176489   4.851034   6.254671   2.689165
     9  S    6.700674   5.959766   6.590315   8.006139   4.472995
    10  F    7.354504   6.418269   6.745038   8.165838   4.988059
    11  O    7.171404   6.528341   7.234774   8.611122   5.097687
    12  O    7.264687   6.606998   7.296137   8.691725   5.149804
    13  N    4.782382   3.774215   4.094931   5.521090   2.406379
    14  C    3.642025   2.536678   2.760184   4.186795   1.396951
    15  H    3.681507   3.209489   2.019610   1.091128   4.357465
    16  H    2.902448   2.771298   2.073883   1.093433   4.094797
    17  H    2.426745   2.534626   2.083488   1.092196   3.959456
    18  H    2.519115   2.664983   3.979189   4.934903   2.150219
    19  H    4.903343   4.637128   5.733422   6.969160   3.396813
    20  H    3.995810   2.791158   2.463295   3.806013   2.168495
                    6          7          8          9         10
     6  C    0.000000
     7  C    1.386657   0.000000
     8  C    2.360524   1.387684   0.000000
     9  S    3.998241   2.719236   1.784336   0.000000
    10  F    4.933479   3.881596   2.580843   1.587513   0.000000
    11  O    4.501077   3.240714   2.627744   1.447201   2.440243
    12  O    4.525719   3.233001   2.636780   1.447039   2.442697
    13  N    2.800644   2.426044   1.332554   2.658483   2.669353
    14  C    2.398673   2.738212   2.262123   3.895138   3.996670
    15  H    5.609335   6.750038   6.787056   8.484794   8.461197
    16  H    5.167031   6.404359   6.655912   8.390702   8.576609
    17  H    4.907754   6.217525   6.615241   8.391744   8.696787
    18  H    1.085847   2.157326   3.362724   4.875260   5.942598
    19  H    2.164118   1.085564   2.164907   2.858556   4.296522
    20  H    3.394968   3.822574   3.228549   4.706710   4.488387
                   11         12         13         14         15
    11  O    0.000000
    12  O    2.546030   0.000000
    13  N    3.525310   3.566838   0.000000
    14  C    4.652650   4.707773   1.335216   0.000000
    15  H    9.175623   9.155638   5.895460   4.597357   0.000000
    16  H    8.829552   9.200722   5.958954   4.651465   1.789391
    17  H    9.040848   8.940947   6.035960   4.717342   1.791902
    18  H    5.257605   5.276912   3.886360   3.386308   5.847086
    19  H    3.153848   3.104197   3.395716   3.822816   7.729204
    20  H    5.474904   5.537029   2.048796   1.085070   3.988563
                   16         17         18         19         20
    16  H    0.000000
    17  H    1.788639   0.000000
    18  H    5.224866   4.830045   0.000000
    19  H    7.299040   7.054285   2.516838   0.000000
    20  H    4.299980   4.504260   4.301718   4.906527   0.000000
 Stoichiometry    C7H6FNO4S
 Framework group  C1[X(C7H6FNO4S)]
 Deg. of freedom    54
 Full point group                 C1      NOp   1
 RotChk:  IX=0 Diff= 1.94D-02
 Largest Abelian subgroup         C1      NOp   1
 Largest concise Abelian subgroup C1      NOp   1
                         Standard orientation:                         
 ---------------------------------------------------------------------
 Center     Atomic      Atomic             Coordinates (Angstroms)
 Number     Number       Type             X           Y           Z
 ---------------------------------------------------------------------
      1          8           0        3.628819    1.385812    0.075836
      2          6           0        3.024522    0.338990    0.022187
      3          8           0        3.608289   -0.869243   -0.039555
      4          6           0        5.035227   -0.861747    0.011370
      5          6           0        1.540328    0.248114   -0.027038
      6          6           0        0.804563    1.431821   -0.049520
      7          6           0       -0.580617    1.368317   -0.057194
      8          6           0       -1.144784    0.100702   -0.034047
      9         16           0       -2.925176   -0.007205    0.015134
     10          9           0       -3.098498   -1.585195    0.004747
     11          8           0       -3.374492    0.458278    1.309673
     12          8           0       -3.460093    0.488375   -1.234739
     13          7           0       -0.482365   -1.055474   -0.021479
     14          6           0        0.849867   -0.966262   -0.021727
     15          1           0        5.351155   -1.839062   -0.356874
     16          1           0        5.371433   -0.724317    1.042716
     17          1           0        5.442270   -0.068930   -0.620018
     18          1           0        1.321110    2.386885   -0.059344
     19          1           0       -1.192694    2.264648   -0.077244
     20          1           0        1.377754   -1.914258   -0.017660
 ---------------------------------------------------------------------
 Rotational constants (GHZ):           1.9843472           0.2694861           0.2498571
 Leave Link  202 at Fri Oct  4 19:58:05 2024, MaxMem=  2097152000 cpu:               0.1 elap:               0.0
 (Enter /uufs/chpc.utah.edu/sys/installdir/gaussian16/C01/AVX/g16/l301.exe)
 Standard basis: 6-31G(d) (6D, 7F)
 Ernie: Thresh=  0.10000D-02 Tol=  0.10000D-05 Strict=F.
 There are   226 symmetry adapted cartesian basis functions of A   symmetry.
 There are   226 symmetry adapted basis functions of A   symmetry.
   226 basis functions,   440 primitive gaussians,   226 cartesian basis functions
    56 alpha electrons       56 beta electrons
       nuclear repulsion energy      1016.9398767324 Hartrees.
 IExCor= 3731 DFT=T Ex+Corr=APFD ExCW=0 ScaHFX=  0.229450
 ScaDFX=  1.000000  1.000000  1.000000  1.000000 ScalE2=  1.000000  1.000000
 IRadAn=      5 IRanWt=     -1 IRanGd=            0 ICorTp=0 IEmpDi=211
 NAtoms=   20 NActive=   20 NUniq=   20 SFac= 1.00D+00 NAtFMM=   60 NAOKFM=F Big=F
 Integral buffers will be    131072 words long.
 Raffenetti 2 integral format.
 Two-electron integral symmetry is turned on.
 R6APFD:  NTU= -4 IXU= 1 FactS= 1.050
 R6Disp:  Petersson-Frisch Dispersion energy=       -0.0175597106 Hartrees.
 Nuclear repulsion after empirical dispersion term =     1016.9223170218 Hartrees.
 Leave Link  301 at Fri Oct  4 19:58:05 2024, MaxMem=  2097152000 cpu:               1.1 elap:               0.1
 (Enter /uufs/chpc.utah.edu/sys/installdir/gaussian16/C01/AVX/g16/l302.exe)
 NPDir=0 NMtPBC=     1 NCelOv=     1 NCel=       1 NClECP=     1 NCelD=      1
         NCelK=      1 NCelE2=     1 NClLst=     1 CellRange=     0.0.
 One-electron integrals computed using PRISM.
 One-electron integral symmetry used in STVInt
 NBasis=   226 RedAO= T EigKep=  7.12D-04  NBF=   226
 NBsUse=   226 1.00D-06 EigRej= -1.00D+00 NBFU=   226
 Precomputing XC quadrature grid using
 IXCGrd= 4 IRadAn=           5 IRanWt=          -1 IRanGd=           0 AccXCQ= 0.00D+00.
 Generated NRdTot=       0 NPtTot=           0 NUsed=           0 NTot=          32
 NSgBfM=   224   224   224   224   224 MxSgAt=    20 MxSgA2=    20.
 Leave Link  302 at Fri Oct  4 19:58:05 2024, MaxMem=  2097152000 cpu:               4.3 elap:               0.3
 (Enter /uufs/chpc.utah.edu/sys/installdir/gaussian16/C01/AVX/g16/l303.exe)
 DipDrv:  MaxL=1.
 Leave Link  303 at Fri Oct  4 19:58:05 2024, MaxMem=  2097152000 cpu:               0.9 elap:               0.1
 (Enter /uufs/chpc.utah.edu/sys/installdir/gaussian16/C01/AVX/g16/l401.exe)
 Initial guess from the checkpoint file:  "ID-4006.chk"
 B after Tr=    -0.000000    0.000000    0.000000
         Rot=    0.999991    0.002940    0.000949   -0.002744 Ang=   0.47 deg.
 Guess basis will be translated and rotated to current coordinates.
 JPrj=2 DoOrth=T DoCkMO=T.
 Generating alternative initial guess.
 ExpMin= 1.17D-01 ExpMax= 2.19D+04 ExpMxC= 3.30D+03 IAcc=3 IRadAn=         5 AccDes= 0.00D+00
 Harris functional with IExCor= 3731 and IRadAn=       5 diagonalized for initial guess.
 HarFok:  IExCor= 3731 AccDes= 0.00D+00 IRadAn=         5 IDoV= 1 UseB2=F ITyADJ=14
 ICtDFT=  3500011 ScaDFX=  1.000000  1.000000  1.000000  1.000000
 FoFCou: FMM=F IPFlag=           0 FMFlag=      100000 FMFlg1=           0
         NFxFlg=           0 DoJE=T BraDBF=F KetDBF=T FulRan=T
         wScrn=  0.000000 ICntrl=       500 IOpCl=  0 I1Cent=   200000004 NGrid=           0
         NMat0=    1 NMatS0=      1 NMatT0=    0 NMatD0=    1 NMtDS0=    0 NMtDT0=    0
 Petite list used in FoFCou.
 Harris En= -1097.68504549647    
 Leave Link  401 at Fri Oct  4 19:58:06 2024, MaxMem=  2097152000 cpu:              15.1 elap:               1.0
 (Enter /uufs/chpc.utah.edu/sys/installdir/gaussian16/C01/AVX/g16/l502.exe)
 Integral symmetry usage will be decided dynamically.
 Closed shell SCF:
 Using DIIS extrapolation, IDIIS=  1040.
 NGot=  2097152000 LenX=  2097043335 LenY=  2096991818
 Requested convergence on RMS density matrix=1.00D-08 within 128 cycles.
 Requested convergence on MAX density matrix=1.00D-06.
 Requested convergence on             energy=1.00D-06.
 No special actions if energy rises.
 Fock matrices will be formed incrementally for  20 cycles.
 Integral accuracy reduced to 1.0D-05 until final iterations.

 Cycle   1  Pass 0  IDiag  1:
 FoFJK:  IHMeth= 1 ICntrl=       0 DoSepK=F KAlg= 0 I1Cent=           0 FoldK=F
 IRaf= 810000000 NMat=       1 IRICut=       1 DoRegI=T DoRafI=F ISym2E= 0 IDoP0=0 IntGTp=1.
 FoFCou: FMM=F IPFlag=           0 FMFlag=      100000 FMFlg1=           0
         NFxFlg=           0 DoJE=F BraDBF=F KetDBF=F FulRan=T
         wScrn=  0.000000 ICntrl=         0 IOpCl=  0 I1Cent=           0 NGrid=           0
         NMat0=    1 NMatS0=      1 NMatT0=    0 NMatD0=    1 NMtDS0=    0 NMtDT0=    0
 Symmetry not used in FoFCou.
 E= -1123.29223640094    
 DIIS: error= 6.17D-03 at cycle   1 NSaved=   1.
 NSaved= 1 IEnMin= 1 EnMin= -1123.29223640094     IErMin= 1 ErrMin= 6.17D-03
 ErrMax= 6.17D-03  0.00D+00 EMaxC= 1.00D-01 BMatC= 9.17D-03 BMatP= 9.17D-03
 IDIUse=3 WtCom= 9.38D-01 WtEn= 6.17D-02
 Coeff-Com:  0.100D+01
 Coeff-En:   0.100D+01
 Coeff:      0.100D+01
 Gap=     1.696 Goal=   None    Shift=    0.000
 GapD=    1.696 DampG=2.000 DampE=1.000 DampFc=2.0000 IDamp=-1.
 RMSDP=9.40D-04 MaxDP=2.75D-02              OVMax= 2.61D-02

 Cycle   2  Pass 0  IDiag  1:
 RMSU=  9.40D-04    CP:  9.99D-01
 E= -1123.30877639719     Delta-E=       -0.016539996251 Rises=F Damp=F
 DIIS: error= 1.17D-03 at cycle   2 NSaved=   2.
 NSaved= 2 IEnMin= 2 EnMin= -1123.30877639719     IErMin= 2 ErrMin= 1.17D-03
 ErrMax= 1.17D-03  0.00D+00 EMaxC= 1.00D-01 BMatC= 5.67D-04 BMatP= 9.17D-03
 IDIUse=3 WtCom= 9.88D-01 WtEn= 1.17D-02
 Coeff-Com:  0.153D-01 0.985D+00
 Coeff-En:   0.000D+00 0.100D+01
 Coeff:      0.152D-01 0.985D+00
 Gap=     0.211 Goal=   None    Shift=    0.000
 RMSDP=2.27D-04 MaxDP=7.14D-03 DE=-1.65D-02 OVMax= 1.09D-02

 Cycle   3  Pass 0  IDiag  1:
 RMSU=  2.25D-04    CP:  9.99D-01  1.03D+00
 E= -1123.30835955874     Delta-E=        0.000416838449 Rises=F Damp=F
 DIIS: error= 2.15D-03 at cycle   3 NSaved=   3.
 NSaved= 3 IEnMin= 2 EnMin= -1123.30877639719     IErMin= 2 ErrMin= 1.17D-03
 ErrMax= 2.15D-03  0.00D+00 EMaxC= 1.00D-01 BMatC= 1.33D-03 BMatP= 5.67D-04
 IDIUse=3 WtCom= 1.77D-01 WtEn= 8.23D-01
 Coeff-Com: -0.489D-01 0.641D+00 0.408D+00
 Coeff-En:   0.000D+00 0.639D+00 0.361D+00
 Coeff:     -0.867D-02 0.639D+00 0.369D+00
 Gap=     0.212 Goal=   None    Shift=    0.000
 RMSDP=1.37D-04 MaxDP=5.25D-03 DE= 4.17D-04 OVMax= 8.26D-03

 Cycle   4  Pass 0  IDiag  1:
 RMSU=  5.26D-05    CP:  9.99D-01  1.06D+00  4.52D-01
 E= -1123.30931180180     Delta-E=       -0.000952243062 Rises=F Damp=F
 DIIS: error= 1.91D-04 at cycle   4 NSaved=   4.
 NSaved= 4 IEnMin= 4 EnMin= -1123.30931180180     IErMin= 4 ErrMin= 1.91D-04
 ErrMax= 1.91D-04  0.00D+00 EMaxC= 1.00D-01 BMatC= 1.58D-05 BMatP= 5.67D-04
 IDIUse=3 WtCom= 9.98D-01 WtEn= 1.91D-03
 Coeff-Com: -0.234D-01 0.219D+00 0.159D+00 0.646D+00
 Coeff-En:   0.000D+00 0.000D+00 0.000D+00 0.100D+01
 Coeff:     -0.233D-01 0.219D+00 0.158D+00 0.646D+00
 Gap=     0.212 Goal=   None    Shift=    0.000
 RMSDP=2.49D-05 MaxDP=9.94D-04 DE=-9.52D-04 OVMax= 9.18D-04

 Cycle   5  Pass 0  IDiag  1:
 RMSU=  2.15D-05    CP:  9.99D-01  1.07D+00  4.64D-01  7.95D-01
 E= -1123.30932145080     Delta-E=       -0.000009648996 Rises=F Damp=F
 DIIS: error= 1.29D-04 at cycle   5 NSaved=   5.
 NSaved= 5 IEnMin= 5 EnMin= -1123.30932145080     IErMin= 5 ErrMin= 1.29D-04
 ErrMax= 1.29D-04  0.00D+00 EMaxC= 1.00D-01 BMatC= 5.81D-06 BMatP= 1.58D-05
 IDIUse=3 WtCom= 9.99D-01 WtEn= 1.29D-03
[...]
   31     203.2864       -0.0046     203.2910        -0.0115     203.2979
   51      -0.6707       -1.2099       0.5392        -1.1237       0.4530
   54      -1.6500       -1.8831       0.2332        -1.7531       0.1031
   55      -0.5760       -1.1796       0.6036        -1.2819       0.7059
   56      -1.3398       -1.9502       0.6104        -2.0618       0.7220
 Sum       77.3133     -183.7906     261.1039      -185.8814     263.1947

 Contributions to Isotropic shielding for atom    8 (    40.1435 ppm):
                         Standard Origin              Atomic Origin
 NLMO      Total    Paramagnetic  Diamagnetic   Paramagnetic  Diamagnetic
    9      -0.1678       -0.8393       0.6714        -1.3245       1.1567
   10       3.2647        0.7781       2.4866         0.1448       3.1199
   11      -0.5109       -1.0696       0.5587        -1.5833       1.0724
   12      -0.9818       -2.0816       1.0999        -2.1282       1.1465
   14     -52.5184      -64.4323      11.9138       -63.0422      10.5238
   15     -10.6854      -25.8375      15.1521       -25.6241      14.9387
   16      -1.7523       -3.3504       1.5981        -3.0737       1.3214
   17     -33.5438      -37.2256       3.6817       -41.3793       7.8354
   18     -47.6921      -55.2084       7.5163       -53.7560       6.0639
   19       1.8734       -0.7406       2.6141         0.2282       1.6452
   20       0.6553       -1.6413       2.2966        -0.9622       1.6175
   21      -0.1604       -2.5384       2.3779        -1.8421       1.6817
   22      -0.8294       -1.9467       1.1173        -2.6559       1.8265
   23       1.2121       -3.3898       4.6018        -3.1216       4.3337
   24      -0.8484       -1.1695       0.3212        -1.1980       0.3496
   32     203.1297       -0.0241     203.1538        -0.0411     203.1708
   49      -1.5774       -2.1862       0.6088        -2.1000       0.5227
   51      -3.6790       -5.2001       1.5211        -5.2927       1.6137
   52      -0.4512       -1.6653       1.2141        -1.4279       0.9767
   54      -3.7636       -4.7040       0.9405        -4.8685       1.1050
   55      -1.4515       -1.9487       0.4972        -1.9765       0.5250
   56      -5.9882      -10.2112       4.2230        -7.6996       1.7114
 Sum       43.5336     -226.6325     270.1660      -224.7245     268.2580

 Contributions to Isotropic shielding for atom    9 (   236.4913 ppm):
                         Standard Origin              Atomic Origin
 NLMO      Total    Paramagnetic  Diamagnetic   Paramagnetic  Diamagnetic
   10       0.0498       -0.6088       0.6586        -1.1305       1.1804
   14      -3.9645       -3.5656      -0.3989        -4.7169       0.7524
   15      -3.2446       -4.1171       0.8725        -4.8873       1.6427
   16      -1.0166       -1.3134       0.2968        -1.9394       0.9228
   17     -99.3740     -114.8424      15.4685      -111.2498      11.8759
   18      -3.1432       -2.5664      -0.5769        -4.0666       0.9233
   19     -81.8786      -87.7281       5.8495       -87.4728       5.5943
   20    -183.8362     -196.1357      12.2995      -195.9278      12.0916
   21    -183.4064     -195.3590      11.9526      -195.2085      11.8021
   33     569.2550        0.0000     569.2550         0.0000     569.2550
   34      93.8118       -0.1291      93.9409        -0.1379      93.9497
   35      54.1272      -48.4424     102.5697       -53.6160     107.7433
   36      21.0453      -90.3403     111.3856       -86.9209     107.9662
   37      51.7286      -56.4030     108.1316       -55.1416     106.8703
   47     -12.1805      -13.6766       1.4961       -13.5817       1.4013
   49      -0.3445       -1.0909       0.7464        -1.3432       0.9987
   50     -35.5610      -37.4398       1.8788       -37.3709       1.8099
   51      22.5323       21.1290       1.4033        20.2206       2.3117
   52      28.9789       26.5605       2.4183        25.1499       3.8290
   53     -36.0566      -38.1542       2.0975       -37.9523       1.8957
   54      22.7760       22.2682       0.5078        20.6013       2.1747
   55      16.4660       15.0690       1.3970        13.3148       3.1513
 Sum      236.7644     -806.8860    1043.6504      -813.3778    1050.1422

 Contributions to Isotropic shielding for atom   10 (   123.0691 ppm):
                         Standard Origin              Atomic Origin
 NLMO      Total    Paramagnetic  Diamagnetic   Paramagnetic  Diamagnetic
   10       0.3117       -0.0927       0.4044        -0.7995       1.1112
   15      -1.5262       -1.5484       0.0222        -2.4906       0.9644
   17       2.7926        2.4336       0.3590         1.1886       1.6040
   18      -0.2242        0.2394      -0.4635        -1.3753       1.1512
   19     -11.7636      -35.6630      23.8994       -36.3826      24.6190
   20      -7.4488       -7.6311       0.1823        -9.1123       1.6635
   21      -7.6274       -7.7556       0.1282        -9.2479       1.6205
   38     311.3663        0.0058     311.3605         0.0058     311.3605
   47      33.7810       -8.5732      42.3542        -9.1876      42.9686
   48     -68.6132     -111.7338      43.1206      -112.4463      43.8331
   49     -64.9272     -107.4298      42.5026      -108.6791      43.7519
   52     -37.4528      -41.8293       4.3765       -41.7942       4.3415
   55     -29.5617      -32.4221       2.8604       -32.8884       3.3266
   56       1.3319        1.2847       0.0472         2.0318      -0.6999
 Sum      120.4384     -350.7154     471.1538      -361.1777     481.6161

 Contributions to Isotropic shielding for atom   11 (   108.1798 ppm):
                         Standard Origin              Atomic Origin
 NLMO      Total    Paramagnetic  Diamagnetic   Paramagnetic  Diamagnetic
   10       0.1557       -0.2325       0.3882        -0.9397       1.0954
   15      -1.4724       -1.6288       0.1565        -2.2686       0.7963
   17      -0.4861       -1.1732       0.6871        -1.7524       1.2663
   18      -0.5135        0.0201      -0.5336        -1.7807       1.2672
   19     -10.5845       -9.9375      -0.6470       -11.7942       1.2096
   20     -65.9960      -77.1295      11.1334       -76.6523      10.6562
   21     -15.3219      -15.2776      -0.0443       -16.4943       1.1724
   39     275.6663        0.0143     275.6520         0.0141     275.6523
   48      -6.8404       -7.3715       0.5311        -7.6322       0.7918
   49      -1.1353       -1.6284       0.4931        -1.7304       0.5951
   50       0.1941      -32.5735      32.7676       -33.0629      33.2571
   51     -29.7157      -63.0898      33.3740       -65.4404      35.7247
   52      -7.9549      -40.4400      32.4851       -41.4770      33.5221
   53      -0.3955       -1.7352       1.3397        -0.5565       0.1610
   54     -21.8800      -24.3810       2.5011       -24.0406       2.1607
   55      -8.6713       -9.2767       0.6054        -9.8344       1.1631
   56       1.4927        1.4782       0.0145         2.2632      -0.7704
 Sum      106.5414     -284.3626     390.9040      -293.1794     399.7208

 Contributions to Isotropic shielding for atom   12 (   121.1955 ppm):
                         Standard Origin              Atomic Origin
 NLMO      Total    Paramagnetic  Diamagnetic   Paramagnetic  Diamagnetic
   14      -0.9998       -0.2443      -0.7555        -2.0576       1.0578
   15       0.7655        0.7356       0.0298        -0.8476       1.6131
   17      -4.5370       -5.0696       0.5327        -5.7948       1.2578
   19     -11.0493      -10.2759      -0.7733       -12.2637       1.2145
   20     -14.6629      -14.6163      -0.0465       -15.8865       1.2237
   21     -67.4577      -79.5778      12.1201       -78.6735      11.2157
   40     275.6368        0.0162     275.6206         0.0165     275.6203
   48      -8.0853       -8.6626       0.5773        -8.9419       0.8565
   49      -0.8798       -1.3190       0.4392        -1.3257       0.4459
   50      -0.3921       -1.7336       1.3415        -0.5419       0.1498
   51     -33.5234      -36.8584       3.3350       -35.8432       2.3198
   52      -5.3598       -5.1408      -0.2189        -6.0969       0.7372
   53       7.5385      -25.5174      33.0559       -25.8184      33.3569
   54     -12.5094      -45.2033      32.6938       -47.9730      35.4635
   55      -6.7815      -40.1509      33.3695       -40.7602      33.9787
 Sum      117.7027     -273.6183     391.3210      -282.8085     400.5112

 Contributions to Isotropic shielding for atom   13 (   -48.1556 ppm):
                         Standard Origin              Atomic Origin
 NLMO      Total    Paramagnetic  Diamagnetic   Paramagnetic  Diamagnetic
    3       0.5248       -0.3407       0.8656        -0.5372       1.0620
   10       6.0834        3.8220       2.2614         3.4117       2.6718
   11      -2.8860       -3.7955       0.9095        -3.5153       0.6293
   12       0.0489       -0.6900       0.7389        -1.2557       1.3046
   14      -2.6841       -3.7415       1.0574        -3.4698       0.7857
   15      -1.6429       -4.7754       3.1325        -4.5054       2.8625
   16      -1.1058       -1.5803       0.4745        -1.6569       0.5512
   17      -0.9780       -1.2793       0.3014        -1.9388       0.9608
   18     -58.5815      -74.5494      15.9680       -70.3499      11.7685
   19       1.5618       -0.1986       1.7604        -0.1267       1.6886
   20       1.1286       -0.5486       1.6772        -0.4988       1.6274
   21      -0.3631       -1.2217       0.8586        -0.9580       0.5949
   22     -62.7998      -79.4575      16.6577       -75.0108      12.2110
   23      -6.1981      -26.5439      20.3458       -26.8229      20.6248
   24      -2.0333       -3.2375       1.2043        -3.2370       1.2037
   41     239.6363        0.0015     239.6347         0.0139     239.6224
   51      -0.6103       -1.0906       0.4803        -0.8632       0.2529
   54      -1.3529       -1.9493       0.5965        -1.7767       0.4238
   56    -151.9209     -173.4914      21.5705      -181.8828      29.9619
 Sum      -44.1728     -374.6678     330.4950      -374.9805     330.8077

 Contributions to Isotropic shielding for atom   14 (    47.8158 ppm):
                         Standard Origin              Atomic Origin
 NLMO      Total    Paramagnetic  Diamagnetic   Paramagnetic  Diamagnetic
    3       0.9877       -1.0239       2.0116        -0.6457       1.6334
    4      -0.9693       -1.0337       0.0644        -1.2774       0.3081
    9      -1.0843       -1.5560       0.4717        -1.3156       0.2313
   10      -0.8355       -6.0807       5.2452        -5.6737       4.8382
   11     -52.5042      -62.8280      10.3239       -61.7719       9.2677
   12      -0.0439       -0.8023       0.7584        -1.2296       1.1858
   14      -0.2108       -0.8754       0.6646        -1.4533       1.2425
   15       2.9675        0.7858       2.1817        -0.0999       3.0674
   18      -0.9876       -2.0158       1.0282        -2.6515       1.6639
   19       0.6335       -0.2597       0.8931        -0.5981       1.2315
   20       0.4988       -0.3184       0.8171        -0.6299       1.1287
   22     -45.2175      -51.5788       6.3613       -50.5706       5.3531
   23       2.5053      -10.1387      12.6441       -10.1840      12.6893
   24     -50.3205      -57.7745       7.4540       -63.0899      12.7694
   42     203.2632        0.0007     203.2625        -0.0044     203.2676
   44      -1.4509       -1.4477      -0.0031        -1.3640      -0.0868
   45      -1.4120       -0.3852      -1.0267        -0.5055      -0.9065
   56      -5.0478       -8.3505       3.3027        -6.1752       1.1274
 Sum       50.7718     -205.6829     256.4547      -209.2403     260.0121

 Contributions to Isotropic shielding for atom   15 (    28.4100 ppm):
                         Standard Origin              Atomic Origin
 NLMO      Total    Paramagnetic  Diamagnetic   Paramagnetic  Diamagnetic
    1      -0.8832        0.0966      -0.9799        -1.7326       0.8494
    2      -0.1112        0.3593      -0.4705        -1.1581       1.0469
    3      -0.5810        0.0827      -0.6637        -1.2768       0.6958
    5      -0.4100       -0.3578      -0.0523        -1.4430       1.0330
    6      26.1171        1.6429      24.4742         2.5268      23.5903
    7       0.5134        0.7734      -0.2600        -1.4024       1.9157
    8       0.5180        0.7423      -0.2243        -1.3965       1.9146
   45       1.1380       -0.3520       1.4899         1.5807      -0.4427
 Sum       26.3010        2.9875      23.3135        -4.3020      30.6030

 Contributions to Isotropic shielding for atom   16 (    28.1324 ppm):
                         Standard Origin              Atomic Origin
 NLMO      Total    Paramagnetic  Diamagnetic   Paramagnetic  Diamagnetic
    1      -1.4156        0.3301      -1.7456        -3.0444       1.6288
    2      -0.2391        0.6160      -0.8551        -1.7675       1.5284
    3      -1.9418        0.4700      -2.4118        -3.6200       1.6782
    5       0.8362       -1.0763       1.9125         0.7218       0.1144
    6       1.1167        1.6226      -0.5058        -0.8906       2.0074
    7      26.6765        2.4478      24.2287         3.2524      23.4241
    8       0.7308        0.6830       0.0478        -1.1818       1.9126
   43       0.9124       -0.1699       1.0823         1.5869      -0.6745
   45       1.1933       -0.3258       1.5191         1.3864      -0.1931
 Sum       27.8695        4.5975      23.2720        -3.5566      31.4261

 Contributions to Isotropic shielding for atom   17 (    28.1344 ppm):
                         Standard Origin              Atomic Origin
 NLMO      Total    Paramagnetic  Diamagnetic   Paramagnetic  Diamagnetic
    1      -1.4035        0.3258      -1.7293        -3.0324       1.6289
    2      -0.2370        0.6087      -0.8457        -1.7651       1.5281
    3      -1.9245        0.4688      -2.3933        -3.6022       1.6776
    5       0.8547       -1.0980       1.9527         0.7400       0.1146
    6       1.1242        1.6096      -0.4854        -0.8829       2.0072
    7       0.7323        0.7009       0.0314        -1.1813       1.9136
    8      26.6781        2.4650      24.2130         3.2501      23.4280
   43       0.9030       -0.1704       1.0733         1.5774      -0.6745
   45       1.1793       -0.3264       1.5057         1.3724      -0.1931
 Sum       27.9064        4.5840      23.3224        -3.5240      31.4304

 Contributions to Isotropic shielding for atom   18 (    23.4780 ppm):
                         Standard Origin              Atomic Origin
 NLMO      Total    Paramagnetic  Diamagnetic   Paramagnetic  Diamagnetic
    1       1.1532       -0.7654       1.9186        -0.5322       1.6854
    2       0.8653       -0.8585       1.7238        -0.8767       1.7420
    4      -0.1550        0.0942      -0.2492        -1.3407       1.1857
    9      -2.1878       -2.1996       0.0118        -3.2425       1.0547
   10       0.2197       -0.7661       0.9859        -2.8864       3.1061
   12      -2.4367       -1.8745      -0.5622        -3.2277       0.7911
   13      26.7387        3.3464      23.3923         3.8975      22.8412
   16      -0.2323       -0.5678       0.3354        -1.2852       1.0529
   21       0.4656       -0.1306       0.5963        -0.5664       1.0321
   23       0.7296        0.0926       0.6370        -0.6829       1.4125
   43      -1.0737       -0.2695      -0.8042        -0.2811      -0.7926
 Sum       24.0867       -3.8988      27.9855       -11.0243      35.1110

 Contributions to Isotropic shielding for atom   19 (    24.1269 ppm):
                         Standard Origin              Atomic Origin
 NLMO      Total    Paramagnetic  Diamagnetic   Paramagnetic  Diamagnetic
   12      -2.0700       -1.9581      -0.1120        -2.7035       0.6335
   13      -0.2443       -0.6893       0.4450        -1.2309       0.9866
   14      -1.8926       -1.5276      -0.3650        -2.0292       0.1365
   15       1.0462       -0.3630       1.4093        -2.6522       3.6984
   16      26.2537        3.2776      22.9761         3.5936      22.6601
   17      -0.2457        0.0811      -0.3268        -1.8670       1.6212
   21       1.8088       -0.2799       2.0887         0.0438       1.7650
   23       0.6778        0.0356       0.6422        -0.5612       1.2390
   53      -0.8634        0.3163      -1.1797         0.2105      -1.0739
   54      -0.7349       -1.4797       0.7449        -0.5136      -0.2213
   55      -0.0734       -1.1038       1.0303        -1.0227       0.9493
 Sum       23.6621       -3.6909      27.3530        -8.7323      32.3945

 Contributions to Isotropic shielding for atom   20 (    22.8028 ppm):
                         Standard Origin              Atomic Origin
 NLMO      Total    Paramagnetic  Diamagnetic   Paramagnetic  Diamagnetic
    3       1.5438       -0.9018       2.4456        -0.1126       1.6564
   10       0.5688       -0.3506       0.9194        -0.5841       1.1528
   11      -2.8442       -2.6380      -0.2062        -3.9719       1.1277
   15       0.6140       -0.0704       0.6844        -0.8638       1.4778
   19       0.4934       -0.1371       0.6305        -0.6048       1.0982
   20       0.4301       -0.1668       0.5969        -0.5948       1.0249
   22      -2.2294       -1.5276      -0.7019        -3.3335       1.1041
   23       0.5482       -0.7370       1.2852        -2.4871       3.0353
   24      27.4850        3.8443      23.6408         4.5194      22.9657
   45      -1.4566       -0.0421      -1.4145         0.0103      -1.4669
   46       0.4755       -0.6520       1.1274        -0.5861       1.0615
   56      -0.9301       -1.6428       0.7127        -0.7164      -0.2137
 Sum       24.6985       -5.0219      29.7204        -9.3253      34.0238
 
 Leave Link  607 at Fri Oct  4 20:04:27 2024, MaxMem=  2097152000 cpu:              40.9 elap:               6.4
 (Enter /uufs/chpc.utah.edu/sys/installdir/gaussian16/C01/AVX/g16/l9999.exe)
 Unable to Open any file for archive entry.
 1\1\GINC-NOTCH076\SP\RAPFD\6-31G(d)\C7H6F1N1O4S1\U1318517\04-Oct-2024\
 0\\#p apfd/6-31G* volume NMR pop=NPA geom=check guess=read\\ID-4006\\0
 ,1\O,0,2.5857386347,1.0560646397,0.1559410556\C,0,2.3198617234,-0.1204
 547571,0.0474308861\O,0,1.5674194639,-0.8132058541,0.9120633876\C,0,1.
 0689254425,-0.0609201584,2.0216545751\C,0,2.7990701002,-0.972142994,-1
 .0770445894\C,0,3.5952379108,-0.3820588275,-2.0569791741\C,0,4.0523629
 99,-1.1622703562,-3.1133760731\C,0,3.6627264103,-2.4962987454,-3.10584
 3372\S,0,4.1896354907,-3.5439024716,-4.4671068173\F,0,5.1384776874,-4.
 5388709971,-3.6417014676\O,0,3.0913973022,-4.3340659538,-4.9615568421\
 O,0,5.0548157894,-2.7785526217,-5.3361684601\N,0,2.9076099201,-3.08889
 18279,-2.1947451166\C,0,2.4831851781,-2.3320033592,-1.1869316169\H,0,0
 .4869333313,-0.7657286192,2.614283559\H,0,0.4405633956,0.7619197009,1.
 6715364973\H,0,1.8967716098,0.3465082445,2.6074737695\H,0,3.8418037072
 ,0.6724671617,-1.9734336592\H,0,4.679199685,-0.7679792487,-3.905562061
 2\H,0,1.8674842184,-2.820812955,-0.4378344807\\Version=ES64L-G16RevC.0
 1\State=1-A\HF=-1123.3144407\RMSD=9.013e-09\Dipole=-0.5742468,1.191156
 8,1.8513432\Quadrupole=3.1732037,-5.7674555,2.5942518,-0.879251,-4.076
 918,-4.8984728\PG=C01 [X(C7H6F1N1O4S1)]\\@
 The archive entry for this job was punched.


 Everywhere is walking distance if you have the time.
                                    -- Steven Wright
 Job cpu time:       0 days  0 hours  3 minutes  5.5 seconds.
 Elapsed time:       0 days  0 hours  0 minutes 18.0 seconds.
 File lengths (MBytes):  RWF=     48 Int=      0 D2E=      0 Chk=      7 Scr=      2
 Normal termination of Gaussian 16 at Fri Oct  4 20:04:29 2024.
