 Entering Gaussian System, Link 0=g16
 Input=ID-4007.com
 Output=ID-4007.log
 Initial command:
 /uufs/chpc.utah.edu/sys/installdir/gaussian16/C01/AVX/g16/l1.exe "/scratch/general/vast/u1318517/1930437-notchpeak.peaks/Gau-1098990.inp" -scrdir="/scratch/general/vast/u1318517/1930437-notchpeak.peaks/"
 Entering Link 1 = /uufs/chpc.utah.edu/sys/installdir/gaussian16/C01/AVX/g16/l1.exe PID=   1098992.
  
 Copyright (c) 1988-2019, Gaussian, Inc.  All Rights Reserved.
  
 This is part of the Gaussian(R) 16 program.  It is based on
 the Gaussian(R) 09 system (copyright 2009, Gaussian, Inc.),
 the Gaussian(R) 03 system (copyright 2003, Gaussian, Inc.),
 the Gaussian(R) 98 system (copyright 1998, Gaussian, Inc.),
 the Gaussian(R) 94 system (copyright 1995, Gaussian, Inc.),
 the Gaussian 92(TM) system (copyright 1992, Gaussian, Inc.),
 the Gaussian 90(TM) system (copyright 1990, Gaussian, Inc.),
 the Gaussian 88(TM) system (copyright 1988, Gaussian, Inc.),
 the Gaussian 86(TM) system (copyright 1986, Carnegie Mellon
 University), and the Gaussian 82(TM) system (copyright 1983,
 Carnegie Mellon University). Gaussian is a federally registered
 trademark of Gaussian, Inc.
  
 This software contains proprietary and confidential information,
 including trade secrets, belonging to Gaussian, Inc.
  
 This software is provided under written license and may be
 used, copied, transmitted, or stored only in accord with that
 written license.
  
 The following legend is applicable only to US Government
 contracts under FAR:
  
                    RESTRICTED RIGHTS LEGEND
  
 Use, reproduction and disclosure by the US Government is
 subject to restrictions as set forth in subparagraphs (a)
 and (c) of the Commercial Computer Software - Restricted
 Rights clause in FAR 52.227-19.
  
 Gaussian, Inc.
 340 Quinnipiac St., Bldg. 40, Wallingford CT 06492
  
  
 ---------------------------------------------------------------
 Warning -- This program may not be used in any manner that
 competes with the business of Gaussian, Inc. or will provide
 assistance to any competitor of Gaussian, Inc.  The licensee
 of this program is prohibited from giving any competitor of
 Gaussian, Inc. access to this program.  By using this program,
 the user acknowledges that Gaussian, Inc. is engaged in the
 business of creating and licensing software in the field of
 computational chemistry and represents and warrants to the
 licensee that it is not a competitor of Gaussian, Inc. and that
 it will not use this program in any manner prohibited above.
 ---------------------------------------------------------------
  

 Cite this work as:
 Gaussian 16, Revision C.01,
 M. J. Frisch, G. W. Trucks, H. B. Schlegel, G. E. Scuseria, 
 M. A. Robb, J. R. Cheeseman, G. Scalmani, V. Barone, 
 G. A. Petersson, H. Nakatsuji, X. Li, M. Caricato, A. V. Marenich, 
 J. Bloino, B. G. Janesko, R. Gomperts, B. Mennucci, H. P. Hratchian, 
 J. V. Ortiz, A. F. Izmaylov, J. L. Sonnenberg, D. Williams-Young, 
 F. Ding, F. Lipparini, F. Egidi, J. Goings, B. Peng, A. Petrone, 
 T. Henderson, D. Ranasinghe, V. G. Zakrzewski, J. Gao, N. Rega, 
 G. Zheng, W. Liang, M. Hada, M. Ehara, K. Toyota, R. Fukuda, 
 J. Hasegawa, M. Ishida, T. Nakajima, Y. Honda, O. Kitao, H. Nakai, 
 T. Vreven, K. Throssell, J. A. Montgomery, Jr., J. E. Peralta, 
 F. Ogliaro, M. J. Bearpark, J. J. Heyd, E. N. Brothers, K. N. Kudin, 
 V. N. Staroverov, T. A. Keith, R. Kobayashi, J. Normand, 
 K. Raghavachari, A. P. Rendell, J. C. Burant, S. S. Iyengar, 
 J. Tomasi, M. Cossi, J. M. Millam, M. Klene, C. Adamo, R. Cammi, 
 J. W. Ochterski, R. L. Martin, K. Morokuma, O. Farkas, 
 J. B. Foresman, and D. J. Fox, Gaussian, Inc., Wallingford CT, 2019.
 
 ******************************************
 Gaussian 16:  ES64L-G16RevC.01  3-Jul-2019
                 4-Oct-2024 
 ******************************************
 %nprocs=16
 Will use up to   16 processors via shared memory.
 %mem=16000MB
 %chk=ID-4007.chk
 -------------------------------
 #p apfd/6-31G* opt freq=noraman
 -------------------------------
 1/18=20,19=15,26=3,38=1/1,3;
 2/9=110,12=2,17=6,18=5,40=1/2;
 3/5=1,6=6,7=1,11=2,25=1,30=1,71=1,74=-44/1,2,3;
 4//1;
 5/5=2,38=5/2;
 6/7=2,8=2,9=2,10=2,28=1/1;
 7//1,2,3,16;
 1/18=20,19=15,26=3/3(2);
 2/9=110/2;
 99//99;
 2/9=110/2;
 3/5=1,6=6,7=1,11=2,25=1,30=1,71=1,74=-44/1,2,3;
 4/5=5,16=3,69=1/1;
 5/5=2,38=5/2;
 7//1,2,3,16;
 1/18=20,19=15,26=3/3(-5);
 2/9=110/2;
 6/7=2,8=2,9=2,10=2,19=2,28=1/1;
 99/9=1/99;
 Leave Link    1 at Fri Oct  4 19:57:58 2024, MaxMem=  2097152000 cpu:               1.2 elap:               0.1
 (Enter /uufs/chpc.utah.edu/sys/installdir/gaussian16/C01/AVX/g16/l101.exe)
 -------
 ID-4007
 -------
 Symbolic Z-matrix:
 Charge =  0 Multiplicity = 1
 F                     2.80508  -1.57204   0.09263 
 S                     2.68617   0.00281  -0.05948 
 C                     3.19963   0.416    -1.6888 
 C                     3.18913   1.73978  -2.0812 
 N                     3.57621   2.1021   -3.3267 
 C                     3.96583   1.07935  -4.13403 
 C                     3.97136  -0.25053  -3.72138 
 O                     4.39174  -1.19168  -4.63558 
 C                     4.37021  -2.52296  -4.13075 
 N                     3.58592  -0.62316  -2.48105 
 O                     1.27027   0.29932   0.04849 
 O                     3.65534   0.55778   0.86571 
 H                     2.87604   2.54384  -1.42371 
 H                     4.27857   1.35775  -5.13449 
 H                     4.73161  -3.18495  -4.92391 
 H                     3.35104  -2.83271  -3.87577 
 H                     5.04207  -2.63349  -3.27278 
 
 ITRead=  0  0  0  0  0  0  0  0  0  0  0  0  0  0  0  0  0
 MicOpt= -1 -1 -1 -1 -1 -1 -1 -1 -1 -1 -1 -1 -1 -1 -1 -1 -1
 NAtoms=     17 NQM=       17 NQMF=       0 NMMI=      0 NMMIF=      0
                NMic=       0 NMicF=      0.
                    Isotopes and Nuclear Properties:
 (Nuclear quadrupole moments (NQMom) in fm**2, nuclear magnetic moments (NMagM)
  in nuclear magnetons)

  Atom         1           2           3           4           5           6           7           8           9          10
 IAtWgt=          19          32          12          12          14          12          12          16          12          14
 AtmWgt=  18.9984032  31.9720718  12.0000000  12.0000000  14.0030740  12.0000000  12.0000000  15.9949146  12.0000000  14.0030740
 NucSpn=           1           0           0           0           2           0           0           0           0           2
 AtZEff=  -0.0000000  -0.0000000  -0.0000000  -0.0000000  -0.0000000  -0.0000000  -0.0000000  -0.0000000  -0.0000000  -0.0000000
 NQMom=    0.0000000   0.0000000   0.0000000   0.0000000   2.0440000   0.0000000   0.0000000   0.0000000   0.0000000   2.0440000
 NMagM=    2.6288670   0.0000000   0.0000000   0.0000000   0.4037610   0.0000000   0.0000000   0.0000000   0.0000000   0.4037610
 AtZNuc=   9.0000000  16.0000000   6.0000000   6.0000000   7.0000000   6.0000000   6.0000000   8.0000000   6.0000000   7.0000000

  Atom        11          12          13          14          15          16          17
 IAtWgt=          16          16           1           1           1           1           1
 AtmWgt=  15.9949146  15.9949146   1.0078250   1.0078250   1.0078250   1.0078250   1.0078250
 NucSpn=           0           0           1           1           1           1           1
 AtZEff=  -0.0000000  -0.0000000  -0.0000000  -0.0000000  -0.0000000  -0.0000000  -0.0000000
 NQMom=    0.0000000   0.0000000   0.0000000   0.0000000   0.0000000   0.0000000   0.0000000
 NMagM=    0.0000000   0.0000000   2.7928460   2.7928460   2.7928460   2.7928460   2.7928460
 AtZNuc=   8.0000000   8.0000000   1.0000000   1.0000000   1.0000000   1.0000000   1.0000000
 Leave Link  101 at Fri Oct  4 19:57:59 2024, MaxMem=  2097152000 cpu:              12.9 elap:               0.8
 (Enter /uufs/chpc.utah.edu/sys/installdir/gaussian16/C01/AVX/g16/l103.exe)

 GradGradGradGradGradGradGradGradGradGradGradGradGradGradGradGradGradGrad
 Berny optimization.
 Initialization pass.
                           ----------------------------
                           !    Initial Parameters    !
                           ! (Angstroms and Degrees)  !
 --------------------------                            --------------------------
 ! Name  Definition              Value          Derivative Info.                !
 --------------------------------------------------------------------------------
 ! R1    R(1,2)                  1.5866         estimate D2E/DX2                !
 ! R2    R(2,3)                  1.7576         estimate D2E/DX2                !
 ! R3    R(2,11)                 1.4506         estimate D2E/DX2                !
 ! R4    R(2,12)                 1.4503         estimate D2E/DX2                !
 ! R5    R(3,4)                  1.3808         estimate D2E/DX2                !
 ! R6    R(3,10)                 1.3626         estimate D2E/DX2                !
 ! R7    R(4,5)                  1.3537         estimate D2E/DX2                !
 ! R8    R(4,13)                 1.0848         estimate D2E/DX2                !
 ! R9    R(5,6)                  1.36           estimate D2E/DX2                !
 ! R10   R(6,7)                  1.3924         estimate D2E/DX2                !
 ! R11   R(6,14)                 1.0845         estimate D2E/DX2                !
 ! R12   R(7,8)                  1.3778         estimate D2E/DX2                !
 ! R13   R(7,10)                 1.3512         estimate D2E/DX2                !
 ! R14   R(8,9)                  1.4239         estimate D2E/DX2                !
 ! R15   R(9,15)                 1.0945         estimate D2E/DX2                !
 ! R16   R(9,16)                 1.0953         estimate D2E/DX2                !
 ! R17   R(9,17)                 1.0953         estimate D2E/DX2                !
 ! A1    A(1,2,3)              107.4771         estimate D2E/DX2                !
 ! A2    A(1,2,11)             105.5985         estimate D2E/DX2                !
 ! A3    A(1,2,12)             105.5799         estimate D2E/DX2                !
 ! A4    A(3,2,11)             107.8239         estimate D2E/DX2                !
 ! A5    A(3,2,12)             107.8306         estimate D2E/DX2                !
 ! A6    A(11,2,12)            121.774          estimate D2E/DX2                !
 ! A7    A(2,3,4)              119.119          estimate D2E/DX2                !
 ! A8    A(2,3,10)             116.2651         estimate D2E/DX2                !
 ! A9    A(4,3,10)             124.6159         estimate D2E/DX2                !
 ! A10   A(3,4,5)              121.0595         estimate D2E/DX2                !
 ! A11   A(3,4,13)             122.7218         estimate D2E/DX2                !
 ! A12   A(5,4,13)             116.2187         estimate D2E/DX2                !
 ! A13   A(4,5,6)              115.2665         estimate D2E/DX2                !
 ! A14   A(5,6,7)              122.9189         estimate D2E/DX2                !
 ! A15   A(5,6,14)             115.9235         estimate D2E/DX2                !
 ! A16   A(7,6,14)             121.1576         estimate D2E/DX2                !
 ! A17   A(6,7,8)              117.1924         estimate D2E/DX2                !
 ! A18   A(6,7,10)             122.2947         estimate D2E/DX2                !
 ! A19   A(8,7,10)             120.5129         estimate D2E/DX2                !
 ! A20   A(7,8,9)              113.5024         estimate D2E/DX2                !
 ! A21   A(8,9,15)             107.6715         estimate D2E/DX2                !
 ! A22   A(8,9,16)             111.1616         estimate D2E/DX2                !
 ! A23   A(8,9,17)             111.2707         estimate D2E/DX2                !
 ! A24   A(15,9,16)            107.7522         estimate D2E/DX2                !
 ! A25   A(15,9,17)            107.7021         estimate D2E/DX2                !
 ! A26   A(16,9,17)            111.0924         estimate D2E/DX2                !
 ! A27   A(3,10,7)             113.8444         estimate D2E/DX2                !
 ! D1    D(1,2,3,4)            179.9464         estimate D2E/DX2                !
 ! D2    D(1,2,3,10)            -0.0858         estimate D2E/DX2                !
 ! D3    D(11,2,3,4)            66.5333         estimate D2E/DX2                !
 ! D4    D(11,2,3,10)         -113.4989         estimate D2E/DX2                !
 ! D5    D(12,2,3,4)           -66.6589         estimate D2E/DX2                !
 ! D6    D(12,2,3,10)          113.3089         estimate D2E/DX2                !
 ! D7    D(2,3,4,5)           -179.9846         estimate D2E/DX2                !
 ! D8    D(2,3,4,13)             0.0291         estimate D2E/DX2                !
 ! D9    D(10,3,4,5)             0.0506         estimate D2E/DX2                !
 ! D10   D(10,3,4,13)         -179.9357         estimate D2E/DX2                !
 ! D11   D(2,3,10,7)          -179.9579         estimate D2E/DX2                !
 ! D12   D(4,3,10,7)             0.0079         estimate D2E/DX2                !
 ! D13   D(3,4,5,6)             -0.0443         estimate D2E/DX2                !
 ! D14   D(13,4,5,6)           179.9428         estimate D2E/DX2                !
 ! D15   D(4,5,6,7)             -0.0151         estimate D2E/DX2                !
 ! D16   D(4,5,6,14)          -179.9768         estimate D2E/DX2                !
 ! D17   D(5,6,7,8)           -179.8611         estimate D2E/DX2                !
 ! D18   D(5,6,7,10)             0.0762         estimate D2E/DX2                !
 ! D19   D(14,6,7,8)             0.0986         estimate D2E/DX2                !
 ! D20   D(14,6,7,10)         -179.9641         estimate D2E/DX2                !
 ! D21   D(6,7,8,9)            179.8098         estimate D2E/DX2                !
 ! D22   D(10,7,8,9)            -0.1287         estimate D2E/DX2                !
 ! D23   D(6,7,10,3)            -0.0681         estimate D2E/DX2                !
 ! D24   D(8,7,10,3)           179.8672         estimate D2E/DX2                !
 ! D25   D(7,8,9,15)          -179.2629         estimate D2E/DX2                !
 ! D26   D(7,8,9,16)            62.9318         estimate D2E/DX2                !
 ! D27   D(7,8,9,17)           -61.4567         estimate D2E/DX2                !
 --------------------------------------------------------------------------------
 Trust Radius=3.00D-01 FncErr=1.00D-07 GrdErr=1.00D-06 EigMax=2.50D+02 EigMin=1.00D-04
 Number of steps in this run=     81 maximum allowed number of steps=    102.
 GradGradGradGradGradGradGradGradGradGradGradGradGradGradGradGradGradGrad

 Leave Link  103 at Fri Oct  4 19:57:59 2024, MaxMem=  2097152000 cpu:               0.2 elap:               0.0
 (Enter /uufs/chpc.utah.edu/sys/installdir/gaussian16/C01/AVX/g16/l202.exe)
                          Input orientation:                          
 ---------------------------------------------------------------------
 Center     Atomic      Atomic             Coordinates (Angstroms)
 Number     Number       Type             X           Y           Z
 ---------------------------------------------------------------------
      1          9           0        2.805080   -1.572040    0.092630
      2         16           0        2.686170    0.002810   -0.059480
      3          6           0        3.199630    0.416000   -1.688800
      4          6           0        3.189130    1.739780   -2.081200
      5          7           0        3.576210    2.102100   -3.326700
      6          6           0        3.965830    1.079350   -4.134030
      7          6           0        3.971360   -0.250530   -3.721380
      8          8           0        4.391740   -1.191680   -4.635580
      9          6           0        4.370210   -2.522960   -4.130750
     10          7           0        3.585920   -0.623160   -2.481050
     11          8           0        1.270270    0.299320    0.048490
     12          8           0        3.655340    0.557780    0.865710
     13          1           0        2.876040    2.543840   -1.423710
     14          1           0        4.278570    1.357750   -5.134490
     15          1           0        4.731610   -3.184950   -4.923910
     16          1           0        3.351040   -2.832710   -3.875770
     17          1           0        5.042070   -2.633490   -3.272780
 ---------------------------------------------------------------------
                    Distance matrix (angstroms):
                    1          2          3          4          5
     1  F    0.000000
     2  S    1.586641   0.000000
     3  C    2.698419   1.757570   0.000000
     4  C    3.980098   2.712450   1.380754   0.000000
     5  N    5.077968   3.984208   2.380643   1.353653   0.000000
     6  C    5.122681   4.404364   2.646931   2.292061   1.360001
     7  C    4.201579   3.889140   2.274030   2.695071   2.418012
     8  O    5.001813   5.027571   3.562201   4.069961   3.636928
     9  C    4.603349   5.078459   3.996356   4.875096   4.761104
    10  N    2.852002   2.658080   1.362620   2.429158   2.853465
    11  O    2.420657   1.450637   2.598888   3.208197   4.467581
    12  O    2.420068   1.450262   2.598710   3.209167   4.468499
    13  H    4.386888   2.890330   2.168568   1.084818   2.075269
    14  H    6.170707   5.488837   3.731459   3.264262   2.077371
    15  H    5.610586   6.165089   5.077375   5.891792   5.642599
    16  H    4.199471   4.800656   3.919168   4.914709   4.970365
    17  H    4.178132   4.777619   3.899098   4.896809   4.957566
                    6          7          8          9         10
     6  C    0.000000
     7  C    1.392441   0.000000
     8  O    2.364430   1.377768   0.000000
     9  C    3.624937   2.343204   1.423946   0.000000
    10  N    2.403168   1.351235   2.369506   2.635500   0.000000
    11  O    5.036662   4.670133   5.822986   5.919539   3.551306
    12  O    5.036451   4.668472   5.819544   5.913257   3.549682
    13  H    3.267753   3.779883   5.154373   5.935745   3.413471
    14  H    1.084543   2.162827   2.600252   4.009464   3.382974
    15  H    4.403928   3.261116   2.042491   1.094506   3.720610
    16  H    3.968486   2.660129   2.086468   1.095293   2.623456
    17  H    3.960458   2.650691   2.087814   1.095320   2.605501
                   11         12         13         14         15
    11  O    0.000000
    12  O    2.534405   0.000000
    13  H    3.127897   3.129407   0.000000
    14  H    6.085509   6.085291   4.140506   0.000000
    15  H    6.988975   6.977541   6.965169   4.570089   0.000000
    16  H    5.434982   5.836922   5.928365   4.472655   1.768797
    17  H    5.818822   5.406877   5.908933   4.469776   1.768254
                   16         17
    16  H    0.000000
    17  H    1.806341   0.000000
 Stoichiometry    C5H5FN2O3S
 Framework group  C1[X(C5H5FN2O3S)]
 Deg. of freedom    45
 Full point group                 C1      NOp   1
 Largest Abelian subgroup         C1      NOp   1
 Largest concise Abelian subgroup C1      NOp   1
                         Standard orientation:                         
 ---------------------------------------------------------------------
 Center     Atomic      Atomic             Coordinates (Angstroms)
 Number     Number       Type             X           Y           Z
 ---------------------------------------------------------------------
      1          9           0       -1.756473   -1.805219   -0.004046
      2         16           0       -1.911292   -0.226155    0.000310
      3          6           0       -0.294363    0.462751   -0.000364
      4          6           0       -0.149023    1.835832    0.001867
      5          7           0        1.077629    2.408284    0.001131
      6          6           0        2.123768    1.539266   -0.000955
      7          6           0        1.958965    0.156613   -0.001951
      8          8           0        3.101326   -0.613618   -0.001104
      9          6           0        2.842144   -2.013774    0.002116
     10          7           0        0.739335   -0.425054   -0.002428
     11          8           0       -2.536816    0.107948   -1.265172
     12          8           0       -2.532765    0.100797    1.269220
     13          1           0       -0.994889    2.515048    0.004501
     14          1           0        3.111753    1.986613   -0.001167
     15          1           0        3.807033   -2.530244    0.015957
     16          1           0        2.312482   -2.319937   -0.906393
     17          1           0        2.290897   -2.313774    0.899808
 ---------------------------------------------------------------------
 Rotational constants (GHZ):           1.4279845           0.5972316           0.4619190
 Leave Link  202 at Fri Oct  4 19:57:59 2024, MaxMem=  2097152000 cpu:               0.1 elap:               0.0
 (Enter /uufs/chpc.utah.edu/sys/installdir/gaussian16/C01/AVX/g16/l301.exe)
 Standard basis: 6-31G(d) (6D, 7F)
 Ernie: Thresh=  0.10000D-02 Tol=  0.10000D-05 Strict=F.
 There are   194 symmetry adapted cartesian basis functions of A   symmetry.
 There are   194 symmetry adapted basis functions of A   symmetry.
   194 basis functions,   380 primitive gaussians,   194 cartesian basis functions
    49 alpha electrons       49 beta electrons
       nuclear repulsion energy       850.9100199391 Hartrees.
 IExCor= 3731 DFT=T Ex+Corr=APFD ExCW=0 ScaHFX=  0.229450
 ScaDFX=  1.000000  1.000000  1.000000  1.000000 ScalE2=  1.000000  1.000000
 IRadAn=      5 IRanWt=     -1 IRanGd=            0 ICorTp=0 IEmpDi=211
 NAtoms=   17 NActive=   17 NUniq=   17 SFac= 1.00D+00 NAtFMM=   60 NAOKFM=F Big=F
 Integral buffers will be    131072 words long.
 Raffenetti 2 integral format.
 Two-electron integral symmetry is turned on.
 R6APFD:  NTU= -4 IXU= 1 FactS= 1.050
 R6Disp:  Petersson-Frisch Dispersion energy=       -0.0135649590 Hartrees.
 Nuclear repulsion after empirical dispersion term =      850.8964549801 Hartrees.
 Leave Link  301 at Fri Oct  4 19:57:59 2024, MaxMem=  2097152000 cpu:               1.0 elap:               0.1
 (Enter /uufs/chpc.utah.edu/sys/installdir/gaussian16/C01/AVX/g16/l302.exe)
 NPDir=0 NMtPBC=     1 NCelOv=     1 NCel=       1 NClECP=     1 NCelD=      1
         NCelK=      1 NCelE2=     1 NClLst=     1 CellRange=     0.0.
 One-electron integrals computed using PRISM.
 One-electron integral symmetry used in STVInt
 NBasis=   194 RedAO= T EigKep=  1.29D-03  NBF=   194
 NBsUse=   194 1.00D-06 EigRej= -1.00D+00 NBFU=   194
 Precomputing XC quadrature grid using
 IXCGrd= 4 IRadAn=           5 IRanWt=          -1 IRanGd=           0 AccXCQ= 0.00D+00.
 Generated NRdTot=       0 NPtTot=           0 NUsed=           0 NTot=          32
 NSgBfM=   193   193   193   193   193 MxSgAt=    17 MxSgA2=    17.
 Leave Link  302 at Fri Oct  4 19:58:00 2024, MaxMem=  2097152000 cpu:               3.8 elap:               0.3
 (Enter /uufs/chpc.utah.edu/sys/installdir/gaussian16/C01/AVX/g16/l303.exe)
 DipDrv:  MaxL=1.
 Leave Link  303 at Fri Oct  4 19:58:00 2024, MaxMem=  2097152000 cpu:               0.8 elap:               0.1
 (Enter /uufs/chpc.utah.edu/sys/installdir/gaussian16/C01/AVX/g16/l401.exe)
 ExpMin= 1.17D-01 ExpMax= 2.19D+04 ExpMxC= 3.30D+03 IAcc=3 IRadAn=         5 AccDes= 0.00D+00
 Harris functional with IExCor= 3731 and IRadAn=       5 diagonalized for initial guess.
 HarFok:  IExCor= 3731 AccDes= 0.00D+00 IRadAn=         5 IDoV= 1 UseB2=F ITyADJ=14
 ICtDFT=  3500011 ScaDFX=  1.000000  1.000000  1.000000  1.000000
 FoFCou: FMM=F IPFlag=           0 FMFlag=      100000 FMFlg1=           0
         NFxFlg=           0 DoJE=T BraDBF=F KetDBF=T FulRan=T
         wScrn=  0.000000 ICntrl=       500 IOpCl=  0 I1Cent=   200000004 NGrid=           0
         NMat0=    1 NMatS0=      1 NMatT0=    0 NMatD0=    1 NMtDS0=    0 NMtDT0=    0
 Petite list used in FoFCou.
 Harris En= -1003.25010721911    
 JPrj=0 DoOrth=F DoCkMO=F.
 Leave Link  401 at Fri Oct  4 19:58:00 2024, MaxMem=  2097152000 cpu:              10.2 elap:               0.7
 (Enter /uufs/chpc.utah.edu/sys/installdir/gaussian16/C01/AVX/g16/l502.exe)
 Integral symmetry usage will be decided dynamically.
 Closed shell SCF:
 Using DIIS extrapolation, IDIIS=  1040.
 NGot=  2097152000 LenX=  2097071123 LenY=  2097033046
 Requested convergence on RMS density matrix=1.00D-08 within 128 cycles.
 Requested convergence on MAX density matrix=1.00D-06.
 Requested convergence on             energy=1.00D-06.
 No special actions if energy rises.
 Fock matrices will be formed incrementally for  20 cycles.
 Integral accuracy reduced to 1.0D-05 until final iterations.

 Cycle   1  Pass 0  IDiag  1:
 FoFJK:  IHMeth= 1 ICntrl=       0 DoSepK=F KAlg= 0 I1Cent=           0 FoldK=F
 IRaf= 880000000 NMat=       1 IRICut=       1 DoRegI=T DoRafI=F ISym2E= 0 IDoP0=0 IntGTp=1.
 FoFCou: FMM=F IPFlag=           0 FMFlag=      100000 FMFlg1=           0
         NFxFlg=           0 DoJE=F BraDBF=F KetDBF=F FulRan=T
         wScrn=  0.000000 ICntrl=         0 IOpCl=  0 I1Cent=           0 NGrid=           0
         NMat0=    1 NMatS0=      1 NMatT0=    0 NMatD0=    1 NMtDS0=    0 NMtDT0=    0
 Symmetry not used in FoFCou.
 E= -1025.69023787370    
 DIIS: error= 9.31D-02 at cycle   1 NSaved=   1.
 NSaved= 1 IEnMin= 1 EnMin= -1025.69023787370     IErMin= 1 ErrMin= 9.31D-02
 ErrMax= 9.31D-02  0.00D+00 EMaxC= 1.00D-01 BMatC= 9.72D-01 BMatP= 9.72D-01
 IDIUse=3 WtCom= 6.88D-02 WtEn= 9.31D-01
 Coeff-Com:  0.100D+01
 Coeff-En:   0.100D+01
 Coeff:      0.100D+01
 Gap=     0.210 Goal=   None    Shift=    0.000
 GapD=    0.210 DampG=1.000 DampE=0.500 DampFc=0.5000 IDamp=-1.
 Damping current iteration by 5.00D-01
 RMSDP=8.66D-03 MaxDP=5.83D-01              OVMax= 3.18D-01

 Cycle   2  Pass 0  IDiag  1:
 RMSU=  4.32D-03    CP:  1.01D+00
 E= -1025.81341622528     Delta-E=       -0.123178351589 Rises=F Damp=T
 DIIS: error= 3.42D-02 at cycle   2 NSaved=   2.
 NSaved= 2 IEnMin= 2 EnMin= -1025.81341622528     IErMin= 2 ErrMin= 3.42D-02
 ErrMax= 3.42D-02  0.00D+00 EMaxC= 1.00D-01 BMatC= 1.69D-01 BMatP= 9.72D-01
 IDIUse=3 WtCom= 6.58D-01 WtEn= 3.42D-01
 Coeff-Com: -0.775D-01 0.108D+01
 Coeff-En:   0.250D+00 0.750D+00
 Coeff:      0.348D-01 0.965D+00
 Gap=     0.291 Goal=   None    Shift=    0.000
 RMSDP=2.91D-03 MaxDP=8.11D-02 DE=-1.23D-01 OVMax= 2.33D-01

 Cycle   3  Pass 0  IDiag  1:
 RMSU=  2.80D-03    CP:  1.01D+00  8.21D-01
 E= -1025.94368591497     Delta-E=       -0.130269689681 Rises=F Damp=F
 DIIS: error= 3.03D-02 at cycle   3 NSaved=   3.
 NSaved= 3 IEnMin= 3 EnMin= -1025.94368591497     IErMin= 3 ErrMin= 3.03D-02
 ErrMax= 3.03D-02  0.00D+00 EMaxC= 1.00D-01 BMatC= 1.53D-01 BMatP= 1.69D-01
 IDIUse=3 WtCom= 6.97D-01 WtEn= 3.03D-01
 Coeff-Com: -0.186D+00 0.620D+00 0.566D+00
 Coeff-En:   0.000D+00 0.163D+00 0.837D+00
 Coeff:     -0.130D+00 0.481D+00 0.648D+00
 Gap=     0.202 Goal=   None    Shift=    0.000
 RMSDP=2.67D-03 MaxDP=7.99D-02 DE=-1.30D-01 OVMax= 1.37D-01

 Cycle   4  Pass 0  IDiag  1:
 RMSU=  1.27D-03    CP:  1.01D+00  1.12D+00  2.99D-01
 E= -1026.02005303263     Delta-E=       -0.076367117666 Rises=F Damp=F
 DIIS: error= 1.62D-02 at cycle   4 NSaved=   4.
 NSaved= 4 IEnMin= 4 EnMin= -1026.02005303263     IErMin= 4 ErrMin= 1.62D-02
 ErrMax= 1.62D-02  0.00D+00 EMaxC= 1.00D-01 BMatC= 5.38D-02 BMatP= 1.53D-01
 IDIUse=3 WtCom= 8.38D-01 WtEn= 1.62D-01
 Coeff-Com: -0.633D-01 0.175D+00 0.411D+00 0.477D+00
 Coeff-En:   0.000D+00 0.000D+00 0.306D+00 0.694D+00
 Coeff:     -0.531D-01 0.146D+00 0.394D+00 0.512D+00
 Gap=     0.202 Goal=   None    Shift=    0.000
 RMSDP=1.22D-03 MaxDP=3.05D-02 DE=-7.64D-02 OVMax= 5.32D-02

 Cycle   5  Pass 0  IDiag  1:
 RMSU=  4.50D-04    CP:  1.01D+00  1.01D+00  5.84D-01  4.80D-01
 E= -1026.05972210474     Delta-E=       -0.039669072111 Rises=F Damp=F
 DIIS: error= 4.55D-03 at cycle   5 NSaved=   5.
 NSaved= 5 IEnMin= 5 EnMin= -1026.05972210474     IErMin= 5 ErrMin= 4.55D-03
 ErrMax= 4.55D-03  0.00D+00 EMaxC= 1.00D-01 BMatC= 3.58D-03 BMatP= 5.38D-02
 IDIUse=3 WtCom= 9.54D-01 WtEn= 4.55D-02
 Coeff-Com: -0.209D-01 0.497D-01 0.209D+00 0.337D+00 0.425D+00
 Coeff-En:   0.000D+00 0.000D+00 0.000D+00 0.162D-01 0.984D+00
 Coeff:     -0.199D-01 0.474D-01 0.200D+00 0.322D+00 0.450D+00
 Gap=     0.192 Goal=   None    Shift=    0.000
 RMSDP=3.43D-04 MaxDP=1.14D-02 DE=-3.97D-02 OVMax= 2.01D-02

 Cycle   6  Pass 0  IDiag  1:
 RMSU=  1.39D-04    CP:  1.01D+00  1.03D+00  5.62D-01  5.79D-01  4.10D-01
 E= -1026.06274276884     Delta-E=       -0.003020664096 Rises=F Damp=F
 DIIS: error= 1.27D-03 at cycle   6 NSaved=   6.
 NSaved= 6 IEnMin= 6 EnMin= -1026.06274276884     IErMin= 6 ErrMin= 1.27D-03
 ErrMax= 1.27D-03  0.00D+00 EMaxC= 1.00D-01 BMatC= 1.91D-04 BMatP= 3.58D-03
 IDIUse=3 WtCom= 9.87D-01 WtEn= 1.27D-02
 Coeff-Com: -0.202D-02 0.294D-02 0.384D-01 0.813D-01 0.236D+00 0.643D+00
 Coeff-En:   0.000D+00 0.000D+00 0.000D+00 0.000D+00 0.283D-01 0.972D+00
 Coeff:     -0.199D-02 0.290D-02 0.379D-01 0.802D-01 0.234D+00 0.647D+00
 Gap=     0.193 Goal=   None    Shift=    0.000
 RMSDP=9.52D-05 MaxDP=3.14D-03 DE=-3.02D-03 OVMax= 7.70D-03

 Cycle   7  Pass 0  IDiag  1:
 RMSU=  4.85D-05    CP:  1.01D+00  1.03D+00  5.68D-01  5.74D-01  5.31D-01
                    CP:  5.86D-01
 E= -1026.06290198232     Delta-E=       -0.000159213484 Rises=F Damp=F
 DIIS: error= 4.19D-04 at cycle   7 NSaved=   7.
 NSaved= 7 IEnMin= 7 EnMin= -1026.06290198232     IErMin= 7 ErrMin= 4.19D-04
 ErrMax= 4.19D-04  0.00D+00 EMaxC= 1.00D-01 BMatC= 3.25D-05 BMatP= 1.91D-04
 IDIUse=3 WtCom= 9.96D-01 WtEn= 4.19D-03
 Coeff-Com:  0.770D-03-0.254D-02 0.118D-02 0.125D-01 0.953D-01 0.410D+00
 Coeff-Com:  0.483D+00
 Coeff-En:   0.000D+00 0.000D+00 0.000D+00 0.000D+00 0.000D+00 0.133D+00
 Coeff-En:   0.867D+00
 Coeff:      0.767D-03-0.253D-02 0.117D-02 0.125D-01 0.949D-01 0.408D+00
 Coeff:      0.485D+00
 Gap=     0.193 Goal=   None    Shift=    0.000
 RMSDP=2.89D-05 MaxDP=1.27D-03 DE=-1.59D-04 OVMax= 2.74D-03

 Cycle   8  Pass 0  IDiag  1:
 RMSU=  1.28D-05    CP:  1.01D+00  1.03D+00  5.66D-01  5.77D-01  5.24D-01
                    CP:  6.93D-01  5.87D-01
 E= -1026.06293354498     Delta-E=       -0.000031562657 Rises=F Damp=F
 DIIS: error= 5.36D-05 at cycle   8 NSaved=   8.
 NSaved= 8 IEnMin= 8 EnMin= -1026.06293354498     IErMin= 8 ErrMin= 5.36D-05
 ErrMax= 5.36D-05  0.00D+00 EMaxC= 1.00D-01 BMatC= 1.03D-06 BMatP= 3.25D-05
 IDIUse=1 WtCom= 1.00D+00 WtEn= 0.00D+00
 Coeff-Com:  0.566D-03-0.151D-02-0.222D-02 0.447D-03 0.328D-01 0.173D+00
 Coeff-Com:  0.243D+00 0.554D+00
 Coeff:      0.566D-03-0.151D-02-0.222D-02 0.447D-03 0.328D-01 0.173D+00
 Coeff:      0.243D+00 0.554D+00
 Gap=     0.193 Goal=   None    Shift=    0.000
 RMSDP=5.59D-06 MaxDP=1.54D-04 DE=-3.16D-05 OVMax= 1.79D-04

 Initial convergence to 1.0D-05 achieved.  Increase integral accuracy.
 Cycle   9  Pass 1  IDiag  1:
 E= -1026.06296128287     Delta-E=       -0.000027737892 Rises=F Damp=F
 DIIS: error= 1.44D-05 at cycle   1 NSaved=   1.
 NSaved= 1 IEnMin= 1 EnMin= -1026.06296128287     IErMin= 1 ErrMin= 1.44D-05
 ErrMax= 1.44D-05  0.00D+00 EMaxC= 1.00D-01 BMatC= 9.08D-08 BMatP= 9.08D-08
 IDIUse=1 WtCom= 1.00D+00 WtEn= 0.00D+00
 Coeff-Com:  0.100D+01
 Coeff:      0.100D+01
 Gap=     0.193 Goal=   None    Shift=    0.000
 RMSDP=5.59D-06 MaxDP=1.54D-04 DE=-2.77D-05 OVMax= 1.89D-04

 Cycle  10  Pass 1  IDiag  1:
 RMSU=  6.25D-06    CP:  1.00D+00
 E= -1026.06296125054     Delta-E=        0.000000032335 Rises=F Damp=F
 DIIS: error= 2.65D-05 at cycle   2 NSaved=   2.
 NSaved= 2 IEnMin= 1 EnMin= -1026.06296128287     IErMin= 1 ErrMin= 1.44D-05
 ErrMax= 2.65D-05  0.00D+00 EMaxC= 1.00D-01 BMatC= 1.11D-07 BMatP= 9.08D-08
 IDIUse=1 WtCom= 1.00D+00 WtEn= 0.00D+00
 Coeff-Com:  0.531D+00 0.469D+00
 Coeff:      0.531D+00 0.469D+00
 Gap=     0.193 Goal=   None    Shift=    0.000
 RMSDP=2.11D-06 MaxDP=7.37D-05 DE= 3.23D-08 OVMax= 1.80D-04

 Cycle  11  Pass 1  IDiag  1:
 RMSU=  1.94D-06    CP:  1.00D+00  8.68D-01
 E= -1026.06296134151     Delta-E=       -0.000000090971 Rises=F Damp=F
 DIIS: error= 1.04D-05 at cycle   3 NSaved=   3.
 NSaved= 3 IEnMin= 3 EnMin= -1026.06296134151     IErMin= 3 ErrMin= 1.04D-05
 ErrMax= 1.04D-05  0.00D+00 EMaxC= 1.00D-01 BMatC= 1.56D-08 BMatP= 9.08D-08
 IDIUse=1 WtCom= 1.00D+00 WtEn= 0.00D+00
 Coeff-Com:  0.115D+00 0.275D+00 0.610D+00
 Coeff:      0.115D+00 0.275D+00 0.610D+00
 Gap=     0.193 Goal=   None    Shift=    0.000
 RMSDP=8.27D-07 MaxDP=2.83D-05 DE=-9.10D-08 OVMax= 7.81D-05

 Cycle  12  Pass 1  IDiag  1:
 RMSU=  4.74D-07    CP:  1.00D+00  9.09D-01  6.77D-01
 E= -1026.06296135494     Delta-E=       -0.000000013436 Rises=F Damp=F
 DIIS: error= 2.99D-06 at cycle   4 NSaved=   4.
 NSaved= 4 IEnMin= 4 EnMin= -1026.06296135494     IErMin= 4 ErrMin= 2.99D-06
 ErrMax= 2.99D-06  0.00D+00 EMaxC= 1.00D-01 BMatC= 2.74D-09 BMatP= 1.56D-08
 IDIUse=1 WtCom= 1.00D+00 WtEn= 0.00D+00
 Coeff-Com:  0.674D-02 0.114D+00 0.378D+00 0.502D+00
 Coeff:      0.674D-02 0.114D+00 0.378D+00 0.502D+00
 Gap=     0.193 Goal=   None    Shift=    0.000
 RMSDP=2.78D-07 MaxDP=8.99D-06 DE=-1.34D-08 OVMax= 2.15D-05

 Cycle  13  Pass 1  IDiag  1:
 RMSU=  1.20D-07    CP:  1.00D+00  9.07D-01  7.42D-01  5.43D-01
 E= -1026.06296135736     Delta-E=       -0.000000002420 Rises=F Damp=F
 DIIS: error= 6.98D-07 at cycle   5 NSaved=   5.
 NSaved= 5 IEnMin= 5 EnMin= -1026.06296135736     IErMin= 5 ErrMin= 6.98D-07
 ErrMax= 6.98D-07  0.00D+00 EMaxC= 1.00D-01 BMatC= 1.62D-10 BMatP= 2.74D-09
 IDIUse=1 WtCom= 1.00D+00 WtEn= 0.00D+00
 Coeff-Com: -0.210D-02 0.526D-01 0.191D+00 0.303D+00 0.455D+00
 Coeff:     -0.210D-02 0.526D-01 0.191D+00 0.303D+00 0.455D+00
 Gap=     0.193 Goal=   None    Shift=    0.000
 RMSDP=6.99D-08 MaxDP=1.73D-06 DE=-2.42D-09 OVMax= 2.28D-06

 Cycle  14  Pass 1  IDiag  1:
 RMSU=  3.76D-08    CP:  1.00D+00  9.09D-01  7.38D-01  5.57D-01  5.28D-01
 E= -1026.06296135749     Delta-E=       -0.000000000123 Rises=F Damp=F
 DIIS: error= 1.69D-07 at cycle   6 NSaved=   6.
 NSaved= 6 IEnMin= 6 EnMin= -1026.06296135749     IErMin= 6 ErrMin= 1.69D-07
 ErrMax= 1.69D-07  0.00D+00 EMaxC= 1.00D-01 BMatC= 9.70D-12 BMatP= 1.62D-10
 IDIUse=1 WtCom= 1.00D+00 WtEn= 0.00D+00
 Coeff-Com: -0.157D-02 0.224D-01 0.832D-01 0.140D+00 0.254D+00 0.502D+00
 Coeff:     -0.157D-02 0.224D-01 0.832D-01 0.140D+00 0.254D+00 0.502D+00
 Gap=     0.193 Goal=   None    Shift=    0.000
 RMSDP=1.82D-08 MaxDP=6.13D-07 DE=-1.23D-10 OVMax= 1.14D-06

 Cycle  15  Pass 1  IDiag  1:
 RMSU=  1.37D-08    CP:  1.00D+00  9.09D-01  7.37D-01  5.60D-01  5.83D-01
                    CP:  7.49D-01
 E= -1026.06296135750     Delta-E=       -0.000000000010 Rises=F Damp=F
 DIIS: error= 7.58D-08 at cycle   7 NSaved=   7.
 NSaved= 7 IEnMin= 7 EnMin= -1026.06296135750     IErMin= 7 ErrMin= 7.58D-08
 ErrMax= 7.58D-08  0.00D+00 EMaxC= 1.00D-01 BMatC= 1.26D-12 BMatP= 9.70D-12
 IDIUse=1 WtCom= 1.00D+00 WtEn= 0.00D+00
 Coeff-Com: -0.581D-03 0.414D-02 0.161D-01 0.306D-01 0.661D-01 0.291D+00
 Coeff-Com:  0.593D+00
 Coeff:     -0.581D-03 0.414D-02 0.161D-01 0.306D-01 0.661D-01 0.291D+00
 Coeff:      0.593D+00
 Gap=     0.193 Goal=   None    Shift=    0.000
 RMSDP=6.83D-09 MaxDP=2.01D-07 DE=-1.05D-11 OVMax= 4.21D-07

 SCF Done:  E(RAPFD) =  -1026.06296136     A.U. after   15 cycles
            NFock= 15  Conv=0.68D-08     -V/T= 2.0067
 KE= 1.019263558383D+03 PE=-4.117361529727D+03 EE= 1.221138555006D+03
 Leave Link  502 at Fri Oct  4 19:58:14 2024, MaxMem=  2097152000 cpu:             214.8 elap:              13.5
 (Enter /uufs/chpc.utah.edu/sys/installdir/gaussian16/C01/AVX/g16/l601.exe)
 Copying SCF densities to generalized density rwf, IOpCl= 0 IROHF=0.

 **********************************************************************

            Population analysis using the SCF Density.

 **********************************************************************

 Orbital symmetries:
       Occupied  (A) (A) (A) (A) (A) (A) (A) (A) (A) (A) (A) (A)
                 (A) (A) (A) (A) (A) (A) (A) (A) (A) (A) (A) (A)
                 (A) (A) (A) (A) (A) (A) (A) (A) (A) (A) (A) (A)
                 (A) (A) (A) (A) (A) (A) (A) (A) (A) (A) (A) (A)
                 (A)
       Virtual   (A) (A) (A) (A) (A) (A) (A) (A) (A) (A) (A) (A)
                 (A) (A) (A) (A) (A) (A) (A) (A) (A) (A) (A) (A)
                 (A) (A) (A) (A) (A) (A) (A) (A) (A) (A) (A) (A)
                 (A) (A) (A) (A) (A) (A) (A) (A) (A) (A) (A) (A)
                 (A) (A) (A) (A) (A) (A) (A) (A) (A) (A) (A) (A)
                 (A) (A) (A) (A) (A) (A) (A) (A) (A) (A) (A) (A)
                 (A) (A) (A) (A) (A) (A) (A) (A) (A) (A) (A) (A)
                 (A) (A) (A) (A) (A) (A) (A) (A) (A) (A) (A) (A)
                 (A) (A) (A) (A) (A) (A) (A) (A) (A) (A) (A) (A)
                 (A) (A) (A) (A) (A) (A) (A) (A) (A) (A) (A) (A)
                 (A) (A) (A) (A) (A) (A) (A) (A) (A) (A) (A) (A)
                 (A) (A) (A) (A) (A) (A) (A) (A) (A) (A) (A) (A)
                 (A)
 The electronic state is 1-A.
 Alpha  occ. eigenvalues --  -89.24744 -24.80686 -19.26706 -19.22129 -19.22126
 Alpha  occ. eigenvalues --  -14.43654 -14.43089 -10.35467 -10.32897 -10.29710
 Alpha  occ. eigenvalues --  -10.29521 -10.27976  -8.22608  -6.17571  -6.17163
 Alpha  occ. eigenvalues --   -6.17118  -1.29944  -1.14298  -1.12906  -1.05872
 Alpha  occ. eigenvalues --   -1.03213  -0.96188  -0.84866  -0.77444  -0.74298
 Alpha  occ. eigenvalues --   -0.69501  -0.66923  -0.61364  -0.58431  -0.55743
 Alpha  occ. eigenvalues --   -0.54731  -0.53713  -0.52834  -0.51494  -0.47159
 Alpha  occ. eigenvalues --   -0.47019  -0.46871  -0.45612  -0.45147  -0.39814
 Alpha  occ. eigenvalues --   -0.39122  -0.38675  -0.37890  -0.37143  -0.35499
 Alpha  occ. eigenvalues --   -0.34864  -0.33695  -0.30752  -0.28749
 Alpha virt. eigenvalues --   -0.09488  -0.05431  -0.00680   0.06198   0.08407
 Alpha virt. eigenvalues --    0.09732   0.10102   0.11264   0.12792   0.14287
 Alpha virt. eigenvalues --    0.14892   0.16225   0.17276   0.19416   0.21602
 Alpha virt. eigenvalues --    0.24951   0.28878   0.30816   0.32897   0.34418
 Alpha virt. eigenvalues --    0.37404   0.38951   0.41789   0.46153   0.49254
 Alpha virt. eigenvalues --    0.49654   0.50881   0.53874   0.54663   0.55684
 Alpha virt. eigenvalues --    0.57109   0.57520   0.60281   0.61487   0.63733
 Alpha virt. eigenvalues --    0.64333   0.69678   0.70665   0.76951   0.76956
 Alpha virt. eigenvalues --    0.79579   0.80685   0.81767   0.82344   0.83107
 Alpha virt. eigenvalues --    0.83814   0.83915   0.85464   0.85949   0.87993
 Alpha virt. eigenvalues --    0.89683   0.90326   0.93867   0.97136   0.97716
 Alpha virt. eigenvalues --    1.00890   1.01370   1.01768   1.02658   1.04048
 Alpha virt. eigenvalues --    1.06394   1.07599   1.10421   1.15643   1.17659
 Alpha virt. eigenvalues --    1.18256   1.22924   1.27201   1.27947   1.29540
 Alpha virt. eigenvalues --    1.31098   1.36599   1.38292   1.39128   1.40214
 Alpha virt. eigenvalues --    1.41033   1.44131   1.44594   1.46575   1.48731
 Alpha virt. eigenvalues --    1.56884   1.56920   1.60413   1.66766   1.73515
 Alpha virt. eigenvalues --    1.74972   1.75719   1.77440   1.78106   1.78202
 Alpha virt. eigenvalues --    1.80085   1.80770   1.82402   1.83310   1.84425
 Alpha virt. eigenvalues --    1.85756   1.88868   1.91193   1.91549   1.95938
 Alpha virt. eigenvalues --    1.97163   2.03001   2.04695   2.07941   2.09802
 Alpha virt. eigenvalues --    2.11357   2.14985   2.16383   2.19317   2.19952
 Alpha virt. eigenvalues --    2.21702   2.23862   2.26394   2.28226   2.31746
 Alpha virt. eigenvalues --    2.33238   2.35177   2.49775   2.50969   2.53778
 Alpha virt. eigenvalues --    2.56768   2.61622   2.63785   2.65952   2.67581
 Alpha virt. eigenvalues --    2.71301   2.80620   2.81407   2.83136   2.90159
 Alpha virt. eigenvalues --    2.92717   3.15281   3.33910   3.76899   3.83320
 Alpha virt. eigenvalues --    3.94732   3.98127   4.01608   4.13877   4.19325
 Alpha virt. eigenvalues --    4.24337   4.33097   4.41390   4.53568   4.61173
          Condensed to atoms (all electrons):
               1          2          3          4          5          6
     1  F    9.147217   0.219285  -0.031492   0.000641  -0.000003  -0.000005
     2  S    0.219285  13.466213   0.181670  -0.018205   0.000393   0.000339
     3  C   -0.031492   0.181670   5.363193   0.411156  -0.037874  -0.037467
     4  C    0.000641  -0.018205   0.411156   4.908500   0.429187  -0.075049
     5  N   -0.000003   0.000393  -0.037874   0.429187   6.680124   0.449325
     6  C   -0.000005   0.000339  -0.037467  -0.075049   0.449325   4.975186
     7  C    0.000331  -0.001178  -0.032006  -0.029973  -0.024225   0.437686
     8  O    0.000000  -0.000137   0.003949   0.000431   0.001977  -0.055627
     9  C   -0.000010   0.000036  -0.000074  -0.000002  -0.000130   0.004373
    10  N    0.004636  -0.021820   0.337698  -0.038246  -0.028314  -0.058869
    11  O   -0.035958   0.457412  -0.055660  -0.000548   0.000024   0.000014
    12  O   -0.036015   0.457653  -0.055666  -0.000560   0.000024   0.000014
    13  H    0.000001   0.003686  -0.056971   0.385272  -0.044298   0.005281
    14  H   -0.000000   0.000002  -0.000170   0.006051  -0.046339   0.374618
    15  H   -0.000000  -0.000001   0.000003   0.000001   0.000001  -0.000064
    16  H    0.000005   0.000062  -0.000297  -0.000022   0.000005   0.000209
    17  H    0.000005   0.000068  -0.000312  -0.000024   0.000005   0.000232
               7          8          9         10         11         12
     1  F    0.000331   0.000000  -0.000010   0.004636  -0.035958  -0.036015
     2  S   -0.001178  -0.000137   0.000036  -0.021820   0.457412   0.457653
     3  C   -0.032006   0.003949  -0.000074   0.337698  -0.055660  -0.055666
     4  C   -0.029973   0.000431  -0.000002  -0.038246  -0.000548  -0.000560
     5  N   -0.024225   0.001977  -0.000130  -0.028314   0.000024   0.000024
     6  C    0.437686  -0.055627   0.004373  -0.058869   0.000014   0.000014
     7  C    4.540248   0.262440  -0.033445   0.376362  -0.000167  -0.000168
     8  O    0.262440   8.221287   0.214528  -0.066959   0.000000   0.000000
     9  C   -0.033445   0.214528   4.985648  -0.009645   0.000000   0.000000
    10  N    0.376362  -0.066959  -0.009645   6.984091   0.000020   0.000011
    11  O   -0.000167   0.000000   0.000000   0.000020   8.153867  -0.041515
    12  O   -0.000168   0.000000   0.000000   0.000011  -0.041515   8.153441
    13  H    0.000160   0.000006  -0.000001   0.002641   0.000285   0.000279
    14  H   -0.051979   0.003135  -0.000221   0.003680  -0.000000  -0.000000
    15  H    0.004235  -0.029056   0.378755   0.000808   0.000000   0.000000
    16  H   -0.005962  -0.031944   0.376104   0.004792   0.000000  -0.000000
    17  H   -0.006177  -0.031688   0.375778   0.005093  -0.000000   0.000000
              13         14         15         16         17
     1  F    0.000001  -0.000000  -0.000000   0.000005   0.000005
     2  S    0.003686   0.000002  -0.000001   0.000062   0.000068
     3  C   -0.056971  -0.000170   0.000003  -0.000297  -0.000312
     4  C    0.385272   0.006051   0.000001  -0.000022  -0.000024
     5  N   -0.044298  -0.046339   0.000001   0.000005   0.000005
     6  C    0.005281   0.374618  -0.000064   0.000209   0.000232
     7  C    0.000160  -0.051979   0.004235  -0.005962  -0.006177
     8  O    0.000006   0.003135  -0.029056  -0.031944  -0.031688
     9  C   -0.000001  -0.000221   0.378755   0.376104   0.375778
    10  N    0.002641   0.003680   0.000808   0.004792   0.005093
    11  O    0.000285  -0.000000   0.000000   0.000000  -0.000000
    12  O    0.000279  -0.000000   0.000000  -0.000000   0.000000
    13  H    0.471884  -0.000033  -0.000000  -0.000000  -0.000000
    14  H   -0.000033   0.488903  -0.000021   0.000011   0.000011
    15  H   -0.000000  -0.000021   0.506006  -0.030853  -0.030728
    16  H   -0.000000   0.000011  -0.030853   0.522398  -0.033753
    17  H   -0.000000   0.000011  -0.030728  -0.033753   0.521856
 Mulliken charges:
               1
     1  F   -0.268638
     2  S    1.254521
     3  C    0.010321
     4  C    0.021389
     5  N   -0.379882
     6  C   -0.020197
     7  C    0.563819
     8  O   -0.492341
     9  C   -0.291693
    10  N   -0.495978
    11  O   -0.477775
    12  O   -0.477498
    13  H    0.231807
    14  H    0.222352
    15  H    0.200913
    16  H    0.199246
    17  H    0.199634
 Sum of Mulliken charges =  -0.00000
 Mulliken charges with hydrogens summed into heavy atoms:
               1
     1  F   -0.268638
     2  S    1.254521
     3  C    0.010321
     4  C    0.253197
     5  N   -0.379882
     6  C    0.202155
     7  C    0.563819
     8  O   -0.492341
     9  C    0.308100
    10  N   -0.495978
    11  O   -0.477775
    12  O   -0.477498
 Electronic spatial extent (au):  <R**2>=           2320.9530
 Charge=             -0.0000 electrons
 Dipole moment (field-independent basis, Debye):
    X=              4.3941    Y=             -0.8494    Z=              0.0038  Tot=              4.4755
 Quadrupole moment (field-independent basis, Debye-Ang):
   XX=            -77.3010   YY=            -70.4306   ZZ=            -77.5902
   XY=             -4.6912   XZ=              0.0085   YZ=             -0.0025
 Traceless Quadrupole moment (field-independent basis, Debye-Ang):
   XX=             -2.1937   YY=              4.6767   ZZ=             -2.4830
   XY=             -4.6912   XZ=              0.0085   YZ=             -0.0025
 Octapole moment (field-independent basis, Debye-Ang**2):
  XXX=             20.8849  YYY=            -38.3380  ZZZ=             -0.0682  XYY=              0.8694
  XXY=            -14.3269  XXZ=              0.0701  XZZ=              5.4480  YZZ=             -8.6812
  YYZ=              0.0371  XYZ=             -0.0976
 Hexadecapole moment (field-independent basis, Debye-Ang**3):
 XXXX=          -1885.1165 YYYY=           -812.4285 ZZZZ=           -183.2727 XXXY=              6.7535
 XXXZ=              0.2648 YYYX=            -54.0008 YYYZ=             -0.0389 ZZZX=              0.0370
 ZZZY=              0.0920 XXYY=           -368.1997 XXZZ=           -370.6435 YYZZ=           -160.3924
 XXYZ=             -0.1038 YYXZ=              0.0339 ZZXY=              3.6813
 N-N= 8.508964549801D+02 E-N=-4.117361531397D+03  KE= 1.019263558383D+03
 No NMR shielding tensors so no spin-rotation constants.
 Leave Link  601 at Fri Oct  4 19:58:14 2024, MaxMem=  2097152000 cpu:               2.1 elap:               0.2
 (Enter /uufs/chpc.utah.edu/sys/installdir/gaussian16/C01/AVX/g16/l701.exe)
 ... and contract with generalized density number  0.
 Compute integral first derivatives.
 R6APFD:  NTU= -4 IXU= 1 FactS= 1.050
 R6Disp: Adding Petersson-Frisch dispersion energy 1st derivatives to the gradient.
 Leave Link  701 at Fri Oct  4 19:58:14 2024, MaxMem=  2097152000 cpu:               2.3 elap:               0.2
 (Enter /uufs/chpc.utah.edu/sys/installdir/gaussian16/C01/AVX/g16/l702.exe)
 L702 exits ... SP integral derivatives will be done elsewhere.
 Leave Link  702 at Fri Oct  4 19:58:15 2024, MaxMem=  2097152000 cpu:               0.7 elap:               0.1
 (Enter /uufs/chpc.utah.edu/sys/installdir/gaussian16/C01/AVX/g16/l703.exe)
 Integral derivatives from FoFJK, PRISM(SPDF).
 Compute integral first derivatives, UseDBF=F ICtDFT=           0.
 Calling FoFJK, ICntrl=      2127 FMM=F ISym2X=0 I1Cent= 0 IOpClX= 0 NMat=1 NMatS=1 NMatT=0.
 FoFJK:  IHMeth= 1 ICntrl=    2127 DoSepK=F KAlg= 0 I1Cent=           0 FoldK=F
 IRaf=         0 NMat=       1 IRICut=       1 DoRegI=T DoRafI=F ISym2E= 0 IDoP0=0 IntGTp=1.
 FoFCou: FMM=F IPFlag=           0 FMFlag=      100000 FMFlg1=         800
         NFxFlg=           0 DoJE=F BraDBF=F KetDBF=F FulRan=T
         wScrn=  0.000000 ICntrl=      2127 IOpCl=  0 I1Cent=           0 NGrid=           0
         NMat0=    1 NMatS0=      1 NMatT0=    0 NMatD0=    1 NMtDS0=    0 NMtDT0=    0
 Symmetry not used in FoFCou.
 Leave Link  703 at Fri Oct  4 19:58:18 2024, MaxMem=  2097152000 cpu:              51.7 elap:               3.3
 (Enter /uufs/chpc.utah.edu/sys/installdir/gaussian16/C01/AVX/g16/l716.exe)
 Dipole        = 1.72878339D+00-3.34163558D-01 1.48711143D-03
 ***** Axes restored to original set *****
 -------------------------------------------------------------------
 Center     Atomic                   Forces (Hartrees/Bohr)
 Number     Number              X              Y              Z
 -------------------------------------------------------------------
      1        9           0.004866022   -0.004047476   -0.013016764
      2       16          -0.014098302    0.019961338    0.033600037
      3        6           0.014844018   -0.038201819   -0.031075790
      4        6           0.002668484    0.011608881   -0.011532208
      5        7           0.005467564   -0.037294309   -0.003939258
      6        6          -0.008323180    0.037516171    0.012205291
      7        6           0.002209249   -0.032561855    0.004295314
      8        8          -0.011213535    0.020516207    0.026316236
      9        6           0.002926333   -0.011470132   -0.004630419
     10        7          -0.000176139    0.031056703   -0.009402668
     11        8           0.006952777   -0.001519455   -0.001494587
     12        8          -0.003844563   -0.002511500   -0.005004242
     13        1          -0.000613273   -0.000767026    0.001946364
     14        1           0.000691967   -0.001931226   -0.001417827
     15        1           0.000155925    0.006288675   -0.002805059
     16        1           0.001389851    0.001927418    0.003951983
     17        1          -0.003903200    0.001429404    0.002003600
 -------------------------------------------------------------------
 Cartesian Forces:  Max     0.038201819 RMS     0.015117375
 Leave Link  716 at Fri Oct  4 19:58:18 2024, MaxMem=  2097152000 cpu:               0.8 elap:               0.1
 (Enter /uufs/chpc.utah.edu/sys/installdir/gaussian16/C01/AVX/g16/l103.exe)

 GradGradGradGradGradGradGradGradGradGradGradGradGradGradGradGradGradGrad
 Berny optimization.
 FormGI is forming the generalized inverse of G from B-inverse, IUseBI=4.
 Internal  Forces:  Max     0.034084147 RMS     0.009300030
 Search for a local minimum.
 Step number   1 out of a maximum of   81
 All quantities printed in internal units (Hartrees-Bohrs-Radians)
 RMS Force = .93000D-02 SwitMx=.10000D-02 MixMth= 1
 Mixed Optimization -- RFO/linear search
 Second derivative matrix not updated -- first step.
 ITU=  0
     Eigenvalues ---    0.00932   0.01375   0.01695   0.01986   0.02181
     Eigenvalues ---    0.02199   0.02222   0.02263   0.02308   0.02332
     Eigenvalues ---    0.09966   0.10537   0.11397   0.12697   0.16000
     Eigenvalues ---    0.16000   0.16000   0.16000   0.16000   0.23216
     Eigenvalues ---    0.23490   0.25000   0.25000   0.25000   0.25000
     Eigenvalues ---    0.25000   0.25000   0.25000   0.29766   0.34205
     Eigenvalues ---    0.34208   0.34297   0.35418   0.35451   0.41872
     Eigenvalues ---    0.43663   0.48069   0.49513   0.49651   0.52455
     Eigenvalues ---    0.52767   0.53890   0.54529   0.95655   0.95823
 RFO step:  Lambda=-1.59533698D-02 EMin= 9.31574674D-03
 Linear search not attempted -- first point.
 Iteration  1 RMS(Cart)=  0.04757059 RMS(Int)=  0.00255116
 Iteration  2 RMS(Cart)=  0.00263751 RMS(Int)=  0.00025991
 Iteration  3 RMS(Cart)=  0.00000556 RMS(Int)=  0.00025990
 Iteration  4 RMS(Cart)=  0.00000000 RMS(Int)=  0.00025990
 ITry= 1 IFail=0 DXMaxC= 2.99D-01 DCOld= 1.00D+10 DXMaxT= 3.00D-01 DXLimC= 3.00D+00 Rises=F
 Variable       Old X    -DE/DX   Delta X   Delta X   Delta X     New X
                                 (Linear)    (Quad)   (Total)
    R1        2.99832   0.00313   0.00000   0.00565   0.00565   3.00397
    R2        3.32133   0.01205   0.00000   0.03843   0.03843   3.35976
    R3        2.74131  -0.00721   0.00000  -0.00741  -0.00741   2.73390
    R4        2.74060  -0.00672   0.00000  -0.00690  -0.00690   2.73370
    R5        2.60925   0.00164   0.00000   0.00345   0.00346   2.61271
    R6        2.57498  -0.02898   0.00000  -0.05388  -0.05390   2.52108
    R7        2.55803  -0.01407   0.00000  -0.02476  -0.02473   2.53330
    R8        2.05001   0.00079   0.00000   0.00213   0.00213   2.05214
    R9        2.57003  -0.03353   0.00000  -0.06123  -0.06121   2.50882
   R10        2.63133   0.00793   0.00000   0.01614   0.01613   2.64746
   R11        2.04949   0.00101   0.00000   0.00273   0.00273   2.05222
   R12        2.60360  -0.03250   0.00000  -0.06358  -0.06358   2.54002
   R13        2.55346  -0.02623   0.00000  -0.04698  -0.04701   2.50645
   R14        2.69087   0.00117   0.00000   0.00270   0.00270   2.69357
   R15        2.06832  -0.00172   0.00000  -0.00479  -0.00479   2.06353
   R16        2.06980  -0.00092   0.00000  -0.00256  -0.00256   2.06724
   R17        2.06985  -0.00097   0.00000  -0.00271  -0.00271   2.06715
    A1        1.87583  -0.03408   0.00000  -0.13749  -0.13822   1.73761
    A2        1.84304   0.00981   0.00000   0.02573   0.02480   1.86784
    A3        1.84272   0.00986   0.00000   0.02607   0.02514   1.86786
    A4        1.88188   0.00301   0.00000   0.01652   0.01565   1.89753
    A5        1.88200   0.00300   0.00000   0.01651   0.01564   1.89764
    A6        2.12536   0.00239   0.00000   0.02602   0.02504   2.15040
    A7        2.07902  -0.00469   0.00000  -0.01782  -0.01781   2.06121
    A8        2.02921   0.00496   0.00000   0.01846   0.01847   2.04768
    A9        2.17496  -0.00028   0.00000  -0.00065  -0.00066   2.17430
   A10        2.11289  -0.00375   0.00000  -0.01383  -0.01378   2.09911
   A11        2.14190  -0.00021   0.00000  -0.00493  -0.00495   2.13695
   A12        2.02840   0.00396   0.00000   0.01875   0.01873   2.04713
   A13        2.01178   0.00482   0.00000   0.02117   0.02125   2.03303
   A14        2.14534  -0.00476   0.00000  -0.01940  -0.01939   2.12595
   A15        2.02325   0.00472   0.00000   0.02298   0.02297   2.04622
   A16        2.11460   0.00004   0.00000  -0.00357  -0.00358   2.11102
   A17        2.04539  -0.00117   0.00000  -0.00403  -0.00401   2.04139
   A18        2.13444   0.00181   0.00000   0.00604   0.00600   2.14045
   A19        2.10335  -0.00064   0.00000  -0.00202  -0.00199   2.10135
   A20        1.98099   0.01317   0.00000   0.04952   0.04952   2.03051
   A21        1.87922  -0.00834   0.00000  -0.04394  -0.04395   1.83527
   A22        1.94014   0.00051   0.00000   0.00107   0.00105   1.94118
   A23        1.94204   0.00029   0.00000  -0.00012  -0.00015   1.94189
   A24        1.88063   0.00538   0.00000   0.03403   0.03403   1.91466
   A25        1.87976   0.00551   0.00000   0.03479   0.03478   1.91454
   A26        1.93893  -0.00318   0.00000  -0.02408  -0.02413   1.91480
   A27        1.98696   0.00215   0.00000   0.00666   0.00658   1.99354
    D1        3.14066  -0.00003   0.00000  -0.00041  -0.00041   3.14025
    D2       -0.00150  -0.00002   0.00000  -0.00016  -0.00016  -0.00166
    D3        1.16123   0.00377   0.00000   0.02880   0.02873   1.18996
    D4       -1.98093   0.00378   0.00000   0.02904   0.02898  -1.95195
    D5       -1.16342  -0.00377   0.00000  -0.02923  -0.02917  -1.19258
    D6        1.97761  -0.00376   0.00000  -0.02898  -0.02892   1.94869
    D7       -3.14132   0.00000   0.00000   0.00004   0.00004  -3.14128
    D8        0.00051  -0.00001   0.00000  -0.00024  -0.00024   0.00027
    D9        0.00088  -0.00001   0.00000  -0.00023  -0.00023   0.00065
   D10       -3.14047  -0.00002   0.00000  -0.00051  -0.00051  -3.14098
   D11       -3.14086  -0.00001   0.00000  -0.00025  -0.00025  -3.14111
   D12        0.00014  -0.00000   0.00000   0.00001   0.00001   0.00015
   D13       -0.00077   0.00001   0.00000   0.00028   0.00028  -0.00050
   D14        3.14059   0.00002   0.00000   0.00054   0.00054   3.14114
   D15       -0.00026  -0.00000   0.00000  -0.00012  -0.00012  -0.00038
   D16       -3.14119  -0.00003   0.00000  -0.00079  -0.00080   3.14120
   D17       -3.13917  -0.00007   0.00000  -0.00179  -0.00179  -3.14096
   D18        0.00133  -0.00000   0.00000  -0.00009  -0.00009   0.00124
   D19        0.00172  -0.00004   0.00000  -0.00107  -0.00107   0.00065
   D20       -3.14097   0.00002   0.00000   0.00063   0.00063  -3.14034
   D21        3.13827   0.00003   0.00000   0.00079   0.00078   3.13906
   D22       -0.00225  -0.00003   0.00000  -0.00089  -0.00088  -0.00313
   D23       -0.00119   0.00001   0.00000   0.00014   0.00014  -0.00105
   D24        3.13927   0.00007   0.00000   0.00189   0.00189   3.14117
   D25       -3.12873  -0.00008   0.00000  -0.00238  -0.00239  -3.13112
   D26        1.09837  -0.00184   0.00000  -0.01760  -0.01756   1.08080
   D27       -1.07262   0.00171   0.00000   0.01303   0.01300  -1.05962
         Item               Value     Threshold  Converged?
 Maximum Force            0.034084     0.000450     NO 
 RMS     Force            0.009300     0.000300     NO 
 Maximum Displacement     0.298989     0.001800     NO 
 RMS     Displacement     0.048465     0.001200     NO 
 Predicted change in Energy=-8.379736D-03
 Lowest energy point so far.  Saving SCF results.
 GradGradGradGradGradGradGradGradGradGradGradGradGradGradGradGradGradGrad

 Leave Link  103 at Fri Oct  4 19:58:18 2024, MaxMem=  2097152000 cpu:               0.7 elap:               0.1
 (Enter /uufs/chpc.utah.edu/sys/installdir/gaussian16/C01/AVX/g16/l202.exe)
                          Input orientation:                          
 ---------------------------------------------------------------------
 Center     Atomic      Atomic             Coordinates (Angstroms)
 Number     Number       Type             X           Y           Z
 ---------------------------------------------------------------------
      1          9           0        2.857034   -1.548577   -0.065588
      2         16           0        2.676987    0.030653   -0.042390
      3          6           0        3.203385    0.412120   -1.697183
      4          6           0        3.193761    1.736318   -2.094617
      5          7           0        3.581620    2.073034   -3.332883
      6          6           0        3.963702    1.078233   -4.124673
      7          6           0        3.962513   -0.253615   -3.690039
      8          8           0        4.369057   -1.182872   -4.572005
      9          6           0        4.365628   -2.532967   -4.114923
     10          7           0        3.581764   -0.607543   -2.469798
     11          8           0        1.258489    0.293579    0.065855
     12          8           0        3.653132    0.554510    0.887876
     13          1           0        2.878920    2.539988   -1.435628
     14          1           0        4.280060    1.337163   -5.130776
     15          1           0        4.732294   -3.120976   -4.958844
     16          1           0        3.355547   -2.858653   -3.849667
     17          1           0        5.032327   -2.663184   -3.257517
 ---------------------------------------------------------------------
                    Distance matrix (angstroms):
                    1          2          3          4          5
     1  F    0.000000
     2  S    1.589630   0.000000
     3  C    2.574178   1.777906   0.000000
     4  C    3.875678   2.718084   1.382587   0.000000
     5  N    4.931157   3.977062   2.361612   1.340565   0.000000
     6  C    4.959941   4.406596   2.629544   2.268703   1.327609
     7  C    4.004454   3.877979   2.234044   2.663866   2.384520
     8  O    4.767363   4.985294   3.488179   4.005053   3.571611
     9  C    4.431929   5.099919   3.983693   4.866385   4.737246
    10  N    2.681605   2.668000   1.334098   2.405201   2.816098
    11  O    2.442573   1.446715   2.627731   3.239508   4.484954
    12  O    2.442507   1.446610   2.627751   3.240826   4.486183
    13  H    4.312059   2.877264   2.168297   1.085945   2.076394
    14  H    6.000719   5.492584   3.715440   3.249251   2.064399
    15  H    5.471105   6.191007   5.045668   5.845014   5.562871
    16  H    4.035352   4.827410   3.918456   4.921396   4.963840
    17  H    4.020281   4.810553   3.903482   4.907982   4.953988
                    6          7          8          9         10
     6  C    0.000000
     7  C    1.400974   0.000000
     8  O    2.340303   1.344121   0.000000
     9  C    3.633512   2.353396   1.425374   0.000000
    10  N    2.392975   1.326357   2.317350   2.651063   0.000000
    11  O    5.049197   4.660247   5.776269   5.926431   3.555160
    12  O    5.049395   4.658979   5.774197   5.921837   3.553792
    13  H    3.247221   3.749768   5.090880   5.926533   3.386805
    14  H    1.085988   2.169593   2.582774   4.002147   3.369021
    15  H    4.349705   3.228651   2.009436   1.091971   3.719733
    16  H    3.993063   2.679573   2.087395   1.093936   2.650039
    17  H    3.986493   2.671629   2.087853   1.093888   2.636341
                   11         12         13         14         15
    11  O    0.000000
    12  O    2.545215   0.000000
    13  H    3.150651   3.152808   0.000000
    14  H    6.101142   6.101619   4.130872   0.000000
    15  H    6.998150   6.989844   6.920590   4.484314   0.000000
    16  H    5.446607   5.846584   5.932966   4.483395   1.787322
    17  H    5.833447   5.425865   5.918568   4.480824   1.787206
                   16         17
    16  H    0.000000
    17  H    1.788978   0.000000
 Stoichiometry    C5H5FN2O3S
 Framework group  C1[X(C5H5FN2O3S)]
 Deg. of freedom    45
 Full point group                 C1      NOp   1
 RotChk:  IX=0 Diff= 1.91D-02
 Largest Abelian subgroup         C1      NOp   1
 Largest concise Abelian subgroup C1      NOp   1
                         Standard orientation:                         
 ---------------------------------------------------------------------
 Center     Atomic      Atomic             Coordinates (Angstroms)
 Number     Number       Type             X           Y           Z
 ---------------------------------------------------------------------
      1          9           0       -1.572279   -1.780431   -0.003641
      2         16           0       -1.931885   -0.232015    0.000269
      3          6           0       -0.290890    0.452151   -0.000062
      4          6           0       -0.159187    1.828450    0.001261
      5          7           0        1.057712    2.390832    0.000714
      6          6           0        2.093641    1.560533   -0.000539
      7          6           0        1.925229    0.169719   -0.000798
      8          8           0        3.041296   -0.579318   -0.001344
      9          6           0        2.854575   -1.992406    0.001638
     10          7           0        0.730423   -0.406182   -0.001203
     11          8           0       -2.557234    0.060682   -1.271051
     12          8           0       -2.554435    0.054901    1.274156
     13          1           0       -1.016036    2.495596    0.002726
     14          1           0        3.085368    2.003080   -0.001376
     15          1           0        3.862062   -2.413441    0.011709
     16          1           0        2.325347   -2.323791   -0.896581
     17          1           0        2.309758   -2.318670    0.892322
 ---------------------------------------------------------------------
 Rotational constants (GHZ):           1.4470037           0.6071007           0.4701799
 Leave Link  202 at Fri Oct  4 19:58:18 2024, MaxMem=  2097152000 cpu:               0.1 elap:               0.0
 (Enter /uufs/chpc.utah.edu/sys/installdir/gaussian16/C01/AVX/g16/l301.exe)
 Standard basis: 6-31G(d) (6D, 7F)
 Ernie: Thresh=  0.10000D-02 Tol=  0.10000D-05 Strict=F.
 There are   194 symmetry adapted cartesian basis functions of A   symmetry.
 There are   194 symmetry adapted basis functions of A   symmetry.
   194 basis functions,   380 primitive gaussians,   194 cartesian basis functions
    49 alpha electrons       49 beta electrons
       nuclear repulsion energy       856.1198327017 Hartrees.
 IExCor= 3731 DFT=T Ex+Corr=APFD ExCW=0 ScaHFX=  0.229450
 ScaDFX=  1.000000  1.000000  1.000000  1.000000 ScalE2=  1.000000  1.000000
 IRadAn=      5 IRanWt=     -1 IRanGd=            0 ICorTp=0 IEmpDi=211
 NAtoms=   17 NActive=   17 NUniq=   17 SFac= 1.00D+00 NAtFMM=   60 NAOKFM=F Big=F
 Integral buffers will be    131072 words long.
 Raffenetti 2 integral format.
 Two-electron integral symmetry is turned on.
 R6APFD:  NTU= -4 IXU= 1 FactS= 1.050
 R6Disp:  Petersson-Frisch Dispersion energy=       -0.0137627168 Hartrees.
 Nuclear repulsion after empirical dispersion term =      856.1060699848 Hartrees.
 Leave Link  301 at Fri Oct  4 19:58:18 2024, MaxMem=  2097152000 cpu:               1.0 elap:               0.1
 (Enter /uufs/chpc.utah.edu/sys/installdir/gaussian16/C01/AVX/g16/l302.exe)
 NPDir=0 NMtPBC=     1 NCelOv=     1 NCel=       1 NClECP=     1 NCelD=      1
         NCelK=      1 NCelE2=     1 NClLst=     1 CellRange=     0.0.
 One-electron integrals computed using PRISM.
 One-electron integral symmetry used in STVInt
 NBasis=   194 RedAO= T EigKep=  1.20D-03  NBF=   194
 NBsUse=   194 1.00D-06 EigRej= -1.00D+00 NBFU=   194
 Precomputing XC quadrature grid using
 IXCGrd= 4 IRadAn=           5 IRanWt=          -1 IRanGd=           0 AccXCQ= 0.00D+00.
 Generated NRdTot=       0 NPtTot=           0 NUsed=           0 NTot=          32
 NSgBfM=   193   193   193   193   193 MxSgAt=    17 MxSgA2=    17.
 Leave Link  302 at Fri Oct  4 19:58:18 2024, MaxMem=  2097152000 cpu:               3.9 elap:               0.3
 (Enter /uufs/chpc.utah.edu/sys/installdir/gaussian16/C01/AVX/g16/l303.exe)
 DipDrv:  MaxL=1.
 Leave Link  303 at Fri Oct  4 19:58:19 2024, MaxMem=  2097152000 cpu:               0.8 elap:               0.1
 (Enter /uufs/chpc.utah.edu/sys/installdir/gaussian16/C01/AVX/g16/l401.exe)
 Initial guess from the checkpoint file:  "ID-4007.chk"
 B after Tr=    -0.000000   -0.000000    0.000000
         Rot=    0.999978    0.000061    0.000029   -0.006702 Ang=   0.77 deg.
 Guess basis will be translated and rotated to current coordinates.
 JPrj=2 DoOrth=T DoCkMO=T.
 Generating alternative initial guess.
 ExpMin= 1.17D-01 ExpMax= 2.19D+04 ExpMxC= 3.30D+03 IAcc=3 IRadAn=         5 AccDes= 0.00D+00
 Harris functional with IExCor= 3731 and IRadAn=       5 diagonalized for initial guess.
 HarFok:  IExCor= 3731 AccDes= 0.00D+00 IRadAn=         5 IDoV= 1 UseB2=F ITyADJ=14
 ICtDFT=  3500011 ScaDFX=  1.000000  1.000000  1.000000  1.000000
 FoFCou: FMM=F IPFlag=           0 FMFlag=      100000 FMFlg1=           0
         NFxFlg=           0 DoJE=T BraDBF=F KetDBF=T FulRan=T
         wScrn=  0.000000 ICntrl=       500 IOpCl=  0 I1Cent=   200000004 NGrid=           0
         NMat0=    1 NMatS0=      1 NMatT0=    0 NMatD0=    1 NMtDS0=    0 NMtDT0=    0
 Petite list used in FoFCou.
 Harris En= -1003.23610748850    
 Leave Link  401 at Fri Oct  4 19:58:20 2024, MaxMem=  2097152000 cpu:              16.5 elap:               1.1
 (Enter /uufs/chpc.utah.edu/sys/installdir/gaussian16/C01/AVX/g16/l502.exe)
 Integral symmetry usage will be decided dynamically.
 Closed shell SCF:
 Using DIIS extrapolation, IDIIS=  1040.
 NGot=  2097152000 LenX=  2097071123 LenY=  2097033046
 Requested convergence on RMS density matrix=1.00D-08 within 128 cycles.
 Requested convergence on MAX density matrix=1.00D-06.
 Requested convergence on             energy=1.00D-06.
 No special actions if energy rises.
 Fock matrices will be formed incrementally for  20 cycles.
 Integral accuracy reduced to 1.0D-05 until final iterations.

 Cycle   1  Pass 0  IDiag  1:
 FoFJK:  IHMeth= 1 ICntrl=       0 DoSepK=F KAlg= 0 I1Cent=           0 FoldK=F
 IRaf= 890000000 NMat=       1 IRICut=       1 DoRegI=T DoRafI=F ISym2E= 0 IDoP0=0 IntGTp=1.
 FoFCou: FMM=F IPFlag=           0 FMFlag=      100000 FMFlg1=           0
         NFxFlg=           0 DoJE=F BraDBF=F KetDBF=F FulRan=T
         wScrn=  0.000000 ICntrl=         0 IOpCl=  0 I1Cent=           0 NGrid=           0
         NMat0=    1 NMatS0=      1 NMatT0=    0 NMatD0=    1 NMtDS0=    0 NMtDT0=    0
 Symmetry not used in FoFCou.
 E= -1026.06164745706    
 DIIS: error= 4.20D-03 at cycle   1 NSaved=   1.
 NSaved= 1 IEnMin= 1 EnMin= -1026.06164745706     IErMin= 1 ErrMin= 4.20D-03
 ErrMax= 4.20D-03  0.00D+00 EMaxC= 1.00D-01 BMatC= 5.71D-03 BMatP= 5.71D-03
 IDIUse=3 WtCom= 9.58D-01 WtEn= 4.20D-02
 Coeff-Com:  0.100D+01
 Coeff-En:   0.100D+01
 Coeff:      0.100D+01
 Gap=     1.519 Goal=   None    Shift=    0.000
 GapD=    1.519 DampG=2.000 DampE=1.000 DampFc=2.0000 IDamp=-1.
 RMSDP=9.73D-04 MaxDP=2.88D-02              OVMax= 3.38D-02

 Cycle   2  Pass 0  IDiag  1:
 RMSU=  9.72D-04    CP:  9.98D-01
 E= -1026.07148874679     Delta-E=       -0.009841289732 Rises=F Damp=F
 DIIS: error= 2.17D-03 at cycle   2 NSaved=   2.
 NSaved= 2 IEnMin= 2 EnMin= -1026.07148874679     IErMin= 2 ErrMin= 2.17D-03
 ErrMax= 2.17D-03  0.00D+00 EMaxC= 1.00D-01 BMatC= 8.12D-04 BMatP= 5.71D-03
 IDIUse=3 WtCom= 9.78D-01 WtEn= 2.17D-02
 Coeff-Com:  0.129D+00 0.871D+00
 Coeff-En:   0.000D+00 0.100D+01
 Coeff:      0.126D+00 0.874D+00
 Gap=     0.199 Goal=   None    Shift=    0.000
 RMSDP=3.15D-04 MaxDP=7.62D-03 DE=-9.84D-03 OVMax= 1.28D-02

 Cycle   3  Pass 0  IDiag  1:
 RMSU=  3.15D-04    CP:  9.98D-01  9.90D-01
 E= -1026.07085261386     Delta-E=        0.000636132929 Rises=F Damp=F
 DIIS: error= 3.37D-03 at cycle   3 NSaved=   3.
 NSaved= 3 IEnMin= 2 EnMin= -1026.07148874679     IErMin= 2 ErrMin= 2.17D-03
 ErrMax= 3.37D-03  0.00D+00 EMaxC= 1.00D-01 BMatC= 1.68D-03 BMatP= 8.12D-04
 IDIUse=3 WtCom= 1.47D-01 WtEn= 8.53D-01
 Coeff-Com: -0.368D-01 0.610D+00 0.427D+00
 Coeff-En:   0.000D+00 0.635D+00 0.365D+00
 Coeff:     -0.541D-02 0.631D+00 0.374D+00
 Gap=     0.199 Goal=   None    Shift=    0.000
 RMSDP=1.83D-04 MaxDP=4.54D-03 DE= 6.36D-04 OVMax= 8.26D-03

 Cycle   4  Pass 0  IDiag  1:
 RMSU=  6.18D-05    CP:  9.98D-01  1.04D+00  4.82D-01
 E= -1026.07217654179     Delta-E=       -0.001323927926 Rises=F Damp=F
 DIIS: error= 2.82D-04 at cycle   4 NSaved=   4.
 NSaved= 4 IEnMin= 4 EnMin= -1026.07217654179     IErMin= 4 ErrMin= 2.82D-04
 ErrMax= 2.82D-04  0.00D+00 EMaxC= 1.00D-01 BMatC= 2.50D-05 BMatP= 8.12D-04
 IDIUse=3 WtCom= 9.97D-01 WtEn= 2.82D-03
 Coeff-Com: -0.255D-01 0.259D+00 0.155D+00 0.612D+00
 Coeff-En:   0.000D+00 0.000D+00 0.000D+00 0.100D+01
 Coeff:     -0.254D-01 0.258D+00 0.155D+00 0.613D+00
 Gap=     0.198 Goal=   None    Shift=    0.000
 RMSDP=3.49D-05 MaxDP=1.60D-03 DE=-1.32D-03 OVMax= 1.57D-03

 Cycle   5  Pass 0  IDiag  1:
 RMSU=  2.83D-05    CP:  9.98D-01  1.05D+00  4.62D-01  7.09D-01
 E= -1026.07219201279     Delta-E=       -0.000015471001 Rises=F Damp=F
 DIIS: error= 1.54D-04 at cycle   5 NSaved=   5.
 NSaved= 5 IEnMin= 5 EnMin= -1026.07219201279     IErMin= 5 ErrMin= 1.54D-04
 ErrMax= 1.54D-04  0.00D+00 EMaxC= 1.00D-01 BMatC= 6.88D-06 BMatP= 2.50D-05
 IDIUse=3 WtCom= 9.98D-01 WtEn= 1.54D-03
 Coeff-Com: -0.102D-01 0.800D-01 0.409D-01 0.382D+00 0.507D+00
 Coeff-En:   0.000D+00 0.000D+00 0.000D+00 0.203D+00 0.797D+00
 Coeff:     -0.102D-01 0.798D-01 0.408D-01 0.382D+00 0.508D+00
 Gap=     0.199 Goal=   None    Shift=    0.000
 RMSDP=1.50D-05 MaxDP=6.09D-04 DE=-1.55D-05 OVMax= 8.53D-04

 Cycle   6  Pass 0  IDiag  1:
 RMSU=  9.25D-06    CP:  9.98D-01  1.05D+00  4.55D-01  7.86D-01  6.40D-01
 E= -1026.07219774312     Delta-E=       -0.000005730327 Rises=F Damp=F
 DIIS: error= 4.02D-05 at cycle   6 NSaved=   6.
 NSaved= 6 IEnMin= 6 EnMin= -1026.07219774312     IErMin= 6 ErrMin= 4.02D-05
 ErrMax= 4.02D-05  0.00D+00 EMaxC= 1.00D-01 BMatC= 3.72D-07 BMatP= 6.88D-06
 IDIUse=1 WtCom= 1.00D+00 WtEn= 0.00D+00
 Coeff-Com: -0.213D-02 0.105D-01 0.321D-02 0.127D+00 0.245D+00 0.617D+00
 Coeff:     -0.213D-02 0.105D-01 0.321D-02 0.127D+00 0.245D+00 0.617D+00
 Gap=     0.199 Goal=   None    Shift=    0.000
 RMSDP=4.24D-06 MaxDP=1.17D-04 DE=-5.73D-06 OVMax= 3.33D-04

 Initial convergence to 1.0D-05 achieved.  Increase integral accuracy.
 Cycle   7  Pass 1  IDiag  1:
 E= -1026.07222626025     Delta-E=       -0.000028517138 Rises=F Damp=F
 DIIS: error= 1.64D-05 at cycle   1 NSaved=   1.
 NSaved= 1 IEnMin= 1 EnMin= -1026.07222626025     IErMin= 1 ErrMin= 1.64D-05
 ErrMax= 1.64D-05  0.00D+00 EMaxC= 1.00D-01 BMatC= 1.28D-07 BMatP= 1.28D-07
 IDIUse=1 WtCom= 1.00D+00 WtEn= 0.00D+00
 Coeff-Com:  0.100D+01
 Coeff:      0.100D+01
 Gap=     0.199 Goal=   None    Shift=    0.000
 RMSDP=4.24D-06 MaxDP=1.17D-04 DE=-2.85D-05 OVMax= 2.64D-04

 Cycle   8  Pass 1  IDiag  1:
 RMSU=  6.40D-06    CP:  1.00D+00
 E= -1026.07222613484     Delta-E=        0.000000125415 Rises=F Damp=F
 DIIS: error= 3.18D-05 at cycle   2 NSaved=   2.
 NSaved= 2 IEnMin= 1 EnMin= -1026.07222626025     IErMin= 1 ErrMin= 1.64D-05
 ErrMax= 3.18D-05  0.00D+00 EMaxC= 1.00D-01 BMatC= 2.54D-07 BMatP= 1.28D-07
 IDIUse=1 WtCom= 1.00D+00 WtEn= 0.00D+00
 Coeff-Com:  0.594D+00 0.406D+00
 Coeff:      0.594D+00 0.406D+00
 Gap=     0.199 Goal=   None    Shift=    0.000
 RMSDP=2.76D-06 MaxDP=7.50D-05 DE= 1.25D-07 OVMax= 2.30D-04

 Cycle   9  Pass 1  IDiag  1:
 RMSU=  2.30D-06    CP:  1.00D+00  7.62D-01
 E= -1026.07222634813     Delta-E=       -0.000000213289 Rises=F Damp=F
 DIIS: error= 7.05D-06 at cycle   3 NSaved=   3.
 NSaved= 3 IEnMin= 3 EnMin= -1026.07222634813     IErMin= 3 ErrMin= 7.05D-06
 ErrMax= 7.05D-06  0.00D+00 EMaxC= 1.00D-01 BMatC= 1.08D-08 BMatP= 1.28D-07
 IDIUse=1 WtCom= 1.00D+00 WtEn= 0.00D+00
 Coeff-Com:  0.110D+00 0.187D+00 0.703D+00
 Coeff:      0.110D+00 0.187D+00 0.703D+00
 Gap=     0.199 Goal=   None    Shift=    0.000
 RMSDP=7.51D-07 MaxDP=2.65D-05 DE=-2.13D-07 OVMax= 5.07D-05

 Cycle  10  Pass 1  IDiag  1:
 RMSU=  5.36D-07    CP:  1.00D+00  8.05D-01  8.07D-01
 E= -1026.07222635500     Delta-E=       -0.000000006867 Rises=F Damp=F
 DIIS: error= 3.74D-06 at cycle   4 NSaved=   4.
 NSaved= 4 IEnMin= 4 EnMin= -1026.07222635500     IErMin= 4 ErrMin= 3.74D-06
 ErrMax= 3.74D-06  0.00D+00 EMaxC= 1.00D-01 BMatC= 3.94D-09 BMatP= 1.08D-08
 IDIUse=1 WtCom= 1.00D+00 WtEn= 0.00D+00
 Coeff-Com:  0.219D-02 0.788D-01 0.465D+00 0.454D+00
 Coeff:      0.219D-02 0.788D-01 0.465D+00 0.454D+00
 Gap=     0.199 Goal=   None    Shift=    0.000
 RMSDP=3.18D-07 MaxDP=1.05D-05 DE=-6.87D-09 OVMax= 1.71D-05

 Cycle  11  Pass 1  IDiag  1:
 RMSU=  1.10D-07    CP:  1.00D+00  8.05D-01  8.50D-01  4.80D-01
 E= -1026.07222635809     Delta-E=       -0.000000003090 Rises=F Damp=F
 DIIS: error= 7.10D-07 at cycle   5 NSaved=   5.
 NSaved= 5 IEnMin= 5 EnMin= -1026.07222635809     IErMin= 5 ErrMin= 7.10D-07
 ErrMax= 7.10D-07  0.00D+00 EMaxC= 1.00D-01 BMatC= 1.43D-10 BMatP= 3.94D-09
 IDIUse=1 WtCom= 1.00D+00 WtEn= 0.00D+00
 Coeff-Com: -0.290D-02 0.401D-01 0.248D+00 0.272D+00 0.443D+00
 Coeff:     -0.290D-02 0.401D-01 0.248D+00 0.272D+00 0.443D+00
 Gap=     0.199 Goal=   None    Shift=    0.000
 RMSDP=6.39D-08 MaxDP=2.98D-06 DE=-3.09D-09 OVMax= 2.98D-06

 Cycle  12  Pass 1  IDiag  1:
 RMSU=  3.91D-08    CP:  1.00D+00  8.06D-01  8.47D-01  5.06D-01  5.67D-01
 E= -1026.07222635820     Delta-E=       -0.000000000117 Rises=F Damp=F
 DIIS: error= 2.77D-07 at cycle   6 NSaved=   6.
 NSaved= 6 IEnMin= 6 EnMin= -1026.07222635820     IErMin= 6 ErrMin= 2.77D-07
 ErrMax= 2.77D-07  0.00D+00 EMaxC= 1.00D-01 BMatC= 7.75D-12 BMatP= 1.43D-10
 IDIUse=1 WtCom= 1.00D+00 WtEn= 0.00D+00
 Coeff-Com: -0.181D-02 0.141D-01 0.868D-01 0.103D+00 0.240D+00 0.558D+00
 Coeff:     -0.181D-02 0.141D-01 0.868D-01 0.103D+00 0.240D+00 0.558D+00
 Gap=     0.199 Goal=   None    Shift=    0.000
 RMSDP=1.56D-08 MaxDP=4.50D-07 DE=-1.17D-10 OVMax= 5.65D-07

 Cycle  13  Pass 1  IDiag  1:
 RMSU=  1.21D-08    CP:  1.00D+00  8.06D-01  8.47D-01  5.03D-01  6.06D-01
                    CP:  7.79D-01
 E= -1026.07222635821     Delta-E=       -0.000000000010 Rises=F Damp=F
 DIIS: error= 4.89D-08 at cycle   7 NSaved=   7.
 NSaved= 7 IEnMin= 7 EnMin= -1026.07222635821     IErMin= 7 ErrMin= 4.89D-08
 ErrMax= 4.89D-08  0.00D+00 EMaxC= 1.00D-01 BMatC= 4.75D-13 BMatP= 7.75D-12
 IDIUse=1 WtCom= 1.00D+00 WtEn= 0.00D+00
 Coeff-Com: -0.457D-03 0.182D-02 0.876D-02 0.143D-01 0.473D-01 0.211D+00
 Coeff-Com:  0.717D+00
 Coeff:     -0.457D-03 0.182D-02 0.876D-02 0.143D-01 0.473D-01 0.211D+00
 Coeff:      0.717D+00
 Gap=     0.199 Goal=   None    Shift=    0.000
 RMSDP=4.95D-09 MaxDP=2.27D-07 DE=-9.78D-12 OVMax= 2.73D-07

 SCF Done:  E(RAPFD) =  -1026.07222636     A.U. after   13 cycles
            NFock= 13  Conv=0.50D-08     -V/T= 2.0064
 KE= 1.019560625493D+03 PE=-4.128133003653D+03 EE= 1.226394081817D+03
 Leave Link  502 at Fri Oct  4 19:58:28 2024, MaxMem=  2097152000 cpu:             123.9 elap:               7.8
 (Enter /uufs/chpc.utah.edu/sys/installdir/gaussian16/C01/AVX/g16/l701.exe)
 ... and contract with generalized density number  0.
 Compute integral first derivatives.
 R6APFD:  NTU= -4 IXU= 1 FactS= 1.050
 R6Disp: Adding Petersson-Frisch dispersion energy 1st derivatives to the gradient.
 Leave Link  701 at Fri Oct  4 19:58:28 2024, MaxMem=  2097152000 cpu:               2.1 elap:               0.2
 (Enter /uufs/chpc.utah.edu/sys/installdir/gaussian16/C01/AVX/g16/l702.exe)
 L702 exits ... SP integral derivatives will be done elsewhere.
 Leave Link  702 at Fri Oct  4 19:58:28 2024, MaxMem=  2097152000 cpu:               0.7 elap:               0.1
 (Enter /uufs/chpc.utah.edu/sys/installdir/gaussian16/C01/AVX/g16/l703.exe)
 Integral derivatives from FoFJK, PRISM(SPDF).
 Compute integral first derivatives, UseDBF=F ICtDFT=           0.
 Calling FoFJK, ICntrl=      2127 FMM=F ISym2X=0 I1Cent= 0 IOpClX= 0 NMat=1 NMatS=1 NMatT=0.
 FoFJK:  IHMeth= 1 ICntrl=    2127 DoSepK=F KAlg= 0 I1Cent=           0 FoldK=F
 IRaf=         0 NMat=       1 IRICut=       1 DoRegI=T DoRafI=F ISym2E= 0 IDoP0=0 IntGTp=1.
 FoFCou: FMM=F IPFlag=           0 FMFlag=      100000 FMFlg1=         800
         NFxFlg=           0 DoJE=F BraDBF=F KetDBF=F FulRan=T
         wScrn=  0.000000 ICntrl=      2127 IOpCl=  0 I1Cent=           0 NGrid=           0
         NMat0=    1 NMatS0=      1 NMatT0=    0 NMatD0=    1 NMtDS0=    0 NMtDT0=    0
 Symmetry not used in FoFCou.
 Leave Link  703 at Fri Oct  4 19:58:30 2024, MaxMem=  2097152000 cpu:              32.0 elap:               2.0
 (Enter /uufs/chpc.utah.edu/sys/installdir/gaussian16/C01/AVX/g16/l716.exe)
 Dipole        = 1.68484449D+00-3.50516177D-01 1.35678580D-03
 ***** Axes restored to original set *****
 -------------------------------------------------------------------
 Center     Atomic                   Forces (Hartrees/Bohr)
 Number     Number              X              Y              Z
 -------------------------------------------------------------------
      1        9           0.000217286   -0.003228275    0.000398166
      2       16          -0.002229162    0.005680734    0.004267494
      3        6           0.003170795   -0.008101403   -0.006548432
      4        6          -0.000405744    0.003990552   -0.000111509
      5        7           0.001642592   -0.008474210   -0.002063235
      6        6          -0.002155565    0.015371053    0.001330630
      7        6           0.003574022   -0.016835367   -0.005342071
      8        8          -0.003013058    0.006759790    0.006918622
      9        6           0.001764729   -0.004092423   -0.003751169
     10        7          -0.000771868    0.010036982   -0.000878349
     11        8           0.004307679   -0.000380013    0.003170038
     12        8          -0.005070385   -0.001374284    0.000000833
     13        1          -0.000224423   -0.000297314    0.000696841
     14        1           0.000520113   -0.001858792   -0.000858564
     15        1          -0.000312815    0.001060023    0.000403785
     16        1           0.000045872    0.000928261    0.001392925
     17        1          -0.001060068    0.000814685    0.000973994
 -------------------------------------------------------------------
[...]
   10      -0.2426       -2.2434       2.0008        -1.7927       1.5501
   11       2.1902       -3.0764       5.2666        -1.7843       3.9745
   12       0.3146       -0.7805       1.0951        -0.7194       1.0340
   13      -0.8220       -0.8812       0.0592        -1.1531       0.3311
   15       0.1129       -0.1995       0.3124        -1.0609       1.1738
   16       2.9302        1.5275       1.4027         0.0898       2.8403
   28     203.2253        0.0008     203.2245        -0.0091     203.2344
   40      -5.0237       -7.8945       2.8708        -6.4207       1.3969
   43      -1.2258       -1.7789       0.5531        -1.7623       0.5366
   45      -1.2904       -1.4549       0.1645        -1.4058       0.1154
   48      -0.5796       -0.9732       0.3935        -1.0417       0.4620
 Sum       64.2396     -192.4263     256.6659      -194.8070     259.0466

 Contributions to Isotropic shielding for atom    5 (   -87.6647 ppm):
                         Standard Origin              Atomic Origin
 NLMO      Total    Paramagnetic  Diamagnetic   Paramagnetic  Diamagnetic
    3       0.3416       -0.1672       0.5088        -0.8455       1.1871
    5      -3.6583       -3.9915       0.3332        -4.2043       0.5460
    6      -2.5723       -6.0074       3.4351        -5.2995       2.7272
    7      -0.3387       -0.1366      -0.2021        -1.1376       0.7989
    8     -53.0314      -75.4055      22.3741       -64.7832      11.7517
    9      -3.1116       -4.3810       1.2694        -4.2914       1.1798
   10     -64.8619      -84.9822      20.1202       -77.0974      12.2355
   11     -10.8471      -30.1050      19.2579       -30.5823      19.7352
   12      -0.0197       -1.3231       1.3034        -0.3884       0.3688
   13      -2.6187       -3.7311       1.1124        -3.7585       1.1399
   16       5.2922        3.3916       1.9006         2.5813       2.7109
   29     239.6584        0.0110     239.6475         0.0367     239.6218
   40    -188.8624     -201.6259      12.7635      -219.8434      30.9810
   43      -0.9836       -1.0869       0.1032        -1.1804       0.1967
 Sum      -85.6134     -409.5407     323.9273      -410.7939     325.1805

 Contributions to Isotropic shielding for atom    6 (    58.4492 ppm):
                         Standard Origin              Atomic Origin
 NLMO      Total    Paramagnetic  Diamagnetic   Paramagnetic  Diamagnetic
    1       0.2932       -0.1309       0.4240        -0.7139       1.0070
    5      -0.3418       -0.5179       0.1762        -1.6101       1.2683
    6       2.2276       -0.1011       2.3288        -0.7688       2.9964
    7      -0.1737        0.1308      -0.3044        -1.5663       1.3927
    8      -1.1853       -1.9378       0.7525        -2.6065       1.4212
   10     -48.7357      -54.7085       5.9728       -54.0690       5.3333
   11       5.0683       -9.6412      14.7096        -9.7751      14.8434
   12     -42.6236      -55.5467      12.9231       -50.0707       7.4471
   13     -51.4838      -54.7999       3.3161       -64.0928      12.6090
   14      -3.2126       -2.5033      -0.7093        -3.8544       0.6418
   15      -1.4829       -1.7946       0.3117        -1.3629      -0.1200
   16       0.6256       -2.3360       2.9616        -2.1617       2.7873
   17      -0.5452       -1.5360       0.9909        -0.9715       0.4263
   30     203.2231       -0.0004     203.2235        -0.0121     203.2352
   40      -1.2859       -6.7019       5.4160        -2.6721       1.3863
   41      -1.1051       -1.3534       0.2483        -0.5836      -0.5215
 Sum       59.2623     -193.4789     252.7411      -196.8915     256.1538

 Contributions to Isotropic shielding for atom    7 (    42.6109 ppm):
                         Standard Origin              Atomic Origin
 NLMO      Total    Paramagnetic  Diamagnetic   Paramagnetic  Diamagnetic
    1       0.4121       -0.1852       0.5974        -0.8071       1.2192
    4       0.3396       -0.2456       0.5852        -0.7990       1.1386
    5      -0.3342       -0.5181       0.1839        -1.6225       1.2882
    6       1.1449        0.0282       1.1166        -1.5042       2.6490
    7      -1.6241       -2.0617       0.4376        -3.4994       1.8753
    8      -0.1018       -0.4772       0.3753        -1.1820       1.0801
   10      -0.9658       -1.5650       0.5992        -0.9024      -0.0634
   11       0.1413       -4.1770       4.3183        -3.2900       3.4313
   12     -57.3475      -65.7605       8.4129       -65.4583       8.1107
   13      -1.0860       -3.1390       2.0530        -2.5762       1.4902
   14     -41.9689      -38.6728      -3.2961       -43.2236       1.2547
   15     -49.3219      -57.9582       8.6363       -52.6185       3.2966
   16      -0.4416      -12.6371      12.1956       -12.9938      12.5522
   17       1.0314       -0.9867       2.0181        -0.5966       1.6280
   18      -1.4490       -1.5416       0.0926        -1.9869       0.5380
   19      -0.1025       -1.1468       1.0443        -1.0026       0.9001
   20      -0.1501       -1.1928       1.0427        -1.0597       0.9096
   31     203.1517        0.0002     203.1515        -0.0117     203.1634
   40      -1.4038       -1.4521       0.0483        -1.9977       0.5939
   41      -3.6444       -4.8337       1.1893        -4.8876       1.2432
   42      -0.3824       -3.6634       3.2810        -3.9196       3.5372
   43      -0.3337       -5.5396       5.2060        -2.1819       1.8483
 Sum       45.5633     -207.7257     253.2889      -208.1212     253.6845

 Contributions to Isotropic shielding for atom    8 (   216.3115 ppm):
                         Standard Origin              Atomic Origin
 NLMO      Total    Paramagnetic  Diamagnetic   Paramagnetic  Diamagnetic
    1       0.2923       -0.1013       0.3935        -0.7474       1.0396
    5      -0.2414       -0.3273       0.0858        -1.0201       0.7786
    6       1.4302        1.2579       0.1722         0.1405       1.2896
    7      -2.3490       -2.5842       0.2352        -3.0528       0.7038
   10      -1.4393       -1.8059       0.3665        -1.2242      -0.2152
   11       2.0643        1.3210       0.7434         1.1702       0.8941
   12      -5.2614       -4.8854      -0.3760        -5.9373       0.6760
   13      -0.9424       -1.8927       0.9502        -1.9281       0.9857
   14       6.2850      -24.7043      30.9892       -15.0819      21.3669
   15      -6.6907       -6.2965      -0.3942        -7.0275       0.3368
   16       0.5668        0.2294       0.3375        -1.3675       1.9343
   17      13.0558       -9.4332      22.4890        -5.1720      18.2279
   18       1.2978       -0.2567       1.5545        -0.1326       1.4304
   19       1.7603       -0.0590       1.8193         0.5254       1.2349
   20       1.6675       -0.1583       1.8258         0.4219       1.2456
   32     275.6021        0.0365     275.5656         0.0469     275.5552
   40       1.1469        0.5788       0.5680         1.0615       0.0854
   41     -80.8699      -94.4403      13.5704      -114.2900      33.4201
   42       8.7054      -26.9447      35.6501       -27.4716      36.1770
   43       0.4131       -1.7374       2.1505         0.1928       0.2203
 Sum      216.4932     -172.2035     388.6966      -180.8938     397.3869

 Contributions to Isotropic shielding for atom    9 (   140.7336 ppm):
                         Standard Origin              Atomic Origin
 NLMO      Total    Paramagnetic  Diamagnetic   Paramagnetic  Diamagnetic
    1       0.2989       -0.0654       0.3643        -0.7601       1.0590
   14       1.5065        0.4527       1.0538        -0.5114       2.0178
   15      -0.8460       -0.2275      -0.6185        -2.3701       1.5241
   16      -0.0266        0.0166      -0.0432        -1.6976       1.6710
   17      -9.9228      -14.1466       4.2238       -12.1405       2.2178
   18     -20.8900      -21.8811       0.9911       -33.6477      12.7577
   19     -16.3034      -31.5883      15.2849       -28.6904      12.3870
   20     -16.5892      -31.8283      15.2391       -29.0774      12.4883
   33     203.1177        0.0049     203.1127         0.0149     203.1028
   41       0.1392       -3.0969       3.2361        -0.3495       0.4888
   42       0.3139       -1.9162       2.2301        -0.8590       1.1729
 Sum      140.7982     -104.2760     245.0742      -110.0889     250.8871

 Contributions to Isotropic shielding for atom   10 (    -2.3915 ppm):
                         Standard Origin              Atomic Origin
 NLMO      Total    Paramagnetic  Diamagnetic   Paramagnetic  Diamagnetic
    1       1.0338       -0.1485       1.1824        -0.6272       1.6610
    2       0.0599       -0.6104       0.6703        -0.9738       1.0337
    4       0.7642       -0.4435       1.2077        -0.8818       1.6460
    5      -3.9737       -4.5491       0.5754        -4.8565       0.8829
    6      -2.6043       -4.5453       1.9409        -4.9198       2.3154
    7     -53.8370      -68.6423      14.8053       -66.5171      12.6801
    9      -1.0235       -1.5819       0.5584        -1.5278       0.5043
   11       4.0209        1.5231       2.4978         1.7531       2.2677
   12      -0.2963       -1.4926       1.1963        -1.0566       0.7603
   14      -1.0285       -0.5661      -0.4624        -0.7672      -0.2613
   15     -58.4321      -72.4818      14.0498       -72.6572      14.2252
   16      -4.9873      -25.9685      20.9812       -26.0676      21.0803
   17      -0.6493       -2.3874       1.7381        -1.8733       1.2240
   19      -0.3417       -1.2970       0.9553        -1.0866       0.7450
   20      -0.3456       -1.3089       0.9633        -1.0902       0.7446
   34     239.5960       -0.0052     239.6012        -0.0022     239.5982
   40      -2.8057       -2.9638       0.1581        -2.9308       0.1251
   41      -3.7649       -4.2246       0.4597        -4.2748       0.5099
   42       2.0208        0.8802       1.1406         0.8065       1.2144
   43    -111.9707     -138.5724      26.6016      -140.3515      28.3807
   45      -1.1380       -1.5719       0.4338        -1.5949       0.4569
 Sum        0.2969     -330.9581     331.2550      -331.4974     331.7943

 Contributions to Isotropic shielding for atom   11 (   119.1440 ppm):
                         Standard Origin              Atomic Origin
 NLMO      Total    Paramagnetic  Diamagnetic   Paramagnetic  Diamagnetic
    1     -10.3931       -9.5823      -0.8108       -11.6035       1.2104
    2      -9.2024       -9.4676       0.2653       -10.5160       1.3137
    3     -68.5678      -80.4083      11.8405       -79.6639      11.0961
    4     -12.8918      -12.9677       0.0759       -14.1089       1.2171
    5      -0.6638       -0.3123      -0.3515        -1.6729       1.0091
    6       1.3395        1.0156       0.3238        -0.3025       1.6419
   35     275.6435        0.0157     275.6278         0.0159     275.6276
   38      -6.9534       -7.5571       0.6037        -7.7810       0.8276
   39      -1.3831       -1.8484       0.4653        -1.8546       0.4716
   44       5.1239      -28.2072      33.3311       -28.2104      33.3343
   45     -13.8865      -46.2315      32.3450       -49.3551      35.4686
   46      -5.1845      -38.2135      33.0290       -39.1720      33.9875
   47      -0.3526       -1.5133       1.1606        -0.5079       0.1553
   48     -29.6408      -32.6077       2.9669       -31.9345       2.2937
   49      -5.2805       -5.4850       0.2045        -6.0264       0.7459
 Sum      117.7065     -273.3706     391.0771      -282.6937     400.4002

 Contributions to Isotropic shielding for atom   12 (   105.9194 ppm):
                         Standard Origin              Atomic Origin
 NLMO      Total    Paramagnetic  Diamagnetic   Paramagnetic  Diamagnetic
    1      -5.9299       -5.8140      -0.1159        -7.1489       1.2190
    2      -0.3662       -1.1660       0.7998        -1.6308       1.2646
    3     -11.8630      -12.0914       0.2284       -13.0405       1.1775
    4     -68.4612      -79.5038      11.0426       -79.2102      10.7490
    6      -1.7674       -2.0789       0.3116        -2.4707       0.7033
    7      -0.3753       -0.3353      -0.0400        -1.6289       1.2536
   11       0.4177       -0.1497       0.5674        -0.6042       1.0219
   36     275.6628        0.0146     275.6482         0.0144     275.6484
   38      -5.5942       -6.2283       0.6342        -6.4198       0.8257
   39      -1.1229       -1.6432       0.5203        -1.6746       0.5517
   43       1.0133        1.2137      -0.2004         1.6717      -0.6584
   44      -0.6317       -1.6804       1.0487        -0.7914       0.1597
   45     -22.1330      -24.5293       2.3963       -24.3284       2.1954
   46      -5.7992       -6.5356       0.7364        -6.9179       1.1187
   47       0.9895      -31.9696      32.9590       -32.2879      33.2774
   48     -35.7116      -69.7341      34.0225       -71.4585      35.7469
   49     -13.2785      -45.9338      32.6553       -46.8531      33.5746
 Sum      105.0492     -288.1652     393.2144      -294.7797     399.8289

 Contributions to Isotropic shielding for atom   13 (    23.3780 ppm):
                         Standard Origin              Atomic Origin
 NLMO      Total    Paramagnetic  Diamagnetic   Paramagnetic  Diamagnetic
    2      -0.5047        0.0689      -0.5737        -2.0873       1.5826
    3       1.1351       -0.0577       1.1928        -0.6079       1.7430
    5      -1.9558       -2.2729       0.3171        -2.1552       0.1993
    6       1.6871       -0.2468       1.9339        -1.6866       3.3737
    8      -2.2551       -1.0863      -1.1688        -3.0224       0.7673
    9      26.7175        3.5525      23.1650         4.0580      22.6595
   11      -0.0639       -1.0250       0.9611        -1.0783       1.0145
   16       0.5759        0.2117       0.3642        -0.8109       1.3869
   40      -1.0927       -1.7640       0.6713        -0.8464      -0.2463
   44      -0.4282        0.1769      -0.6051         0.6278      -1.0560
 Sum       23.8152       -2.4426      26.2578        -7.6093      31.4245

 Contributions to Isotropic shielding for atom   14 (    23.7167 ppm):
                         Standard Origin              Atomic Origin
 NLMO      Total    Paramagnetic  Diamagnetic   Paramagnetic  Diamagnetic
    6       0.7600        0.0350       0.7250        -0.4284       1.1885
    7      -0.0928        0.0190      -0.1118        -1.1208       1.0280
   10      -2.7809       -1.0683      -1.7126        -3.6636       0.8827
   11       0.4866        0.2498       0.2368        -2.9196       3.4062
   12      -2.5651       -2.1870      -0.3781        -3.3261       0.7609
   13      27.4051        3.5410      23.8641         4.3532      23.0519
   14      -0.9010       -0.1784      -0.7226        -2.4096       1.5086
   30       1.1176        0.6460       0.4716         1.1579      -0.0403
   40      -0.4394       -1.5960       1.1566        -0.2700      -0.1694
 Sum       22.9900       -0.5389      23.5290        -8.6270      31.6170

 Contributions to Isotropic shielding for atom   15 (    28.2461 ppm):
                         Standard Origin              Atomic Origin
 NLMO      Total    Paramagnetic  Diamagnetic   Paramagnetic  Diamagnetic
   15      -0.3222       -0.0611      -0.2610        -1.2750       0.9528
   16      -0.1836       -0.0996      -0.0840        -1.2608       1.0772
   17      -1.5415        1.1087      -2.6502        -2.6407       1.0992
   18      26.4633        1.5855      24.8779         2.8976      23.5657
   19       0.6809       -0.4017       1.0826        -1.2213       1.9023
   20       0.6680       -0.4005       1.0685        -1.2527       1.9207
   41       0.4200       -0.8199       1.2399         0.9744      -0.5544
 Sum       26.1849        0.9113      25.2737        -3.7785      29.9634

 Contributions to Isotropic shielding for atom   16 (    28.2096 ppm):
                         Standard Origin              Atomic Origin
 NLMO      Total    Paramagnetic  Diamagnetic   Paramagnetic  Diamagnetic
    1       0.3981       -0.0478       0.4459        -0.7458       1.1439
    4       0.3050       -0.0695       0.3746        -0.7399       1.0449
   14       0.6542        0.0443       0.6099        -0.9558       1.6100
   15      -0.4581        0.0713      -0.5294        -1.9877       1.5296
   16      -0.1874       -0.0599      -0.1275        -1.6797       1.4923
   17       0.4901       -0.7088       1.1989         0.3892       0.1009
   18       0.7569        0.9491      -0.1922        -1.2617       2.0186
   19      26.3152        2.8572      23.4580         2.8933      23.4219
   20       1.1701       -1.3411       2.5112        -0.7409       1.9111
   43      -0.0809        0.3097      -0.3907         0.9640      -1.0449
 Sum       29.3634        2.0046      27.3588        -3.8650      33.2284

 Contributions to Isotropic shielding for atom   17 (    28.1429 ppm):
                         Standard Origin              Atomic Origin
 NLMO      Total    Paramagnetic  Diamagnetic   Paramagnetic  Diamagnetic
    1       0.2573       -0.0815       0.3389        -0.7966       1.0540
    4       0.4166       -0.0230       0.4396        -0.5843       1.0008
   14       0.6276        0.0470       0.5806        -0.9895       1.6171
   15      -0.4667        0.0772      -0.5440        -2.0019       1.5352
   16      -0.1976       -0.0552      -0.1423        -1.6932       1.4956
   17       0.4753       -0.7021       1.1774         0.3831       0.0922
   18       0.7456        0.9585      -0.2129        -1.2724       2.0180
   19       1.1662       -1.3451       2.5113        -0.7360       1.9022
   20      26.2713        2.8700      23.4013         2.9207      23.3506
   43      -0.0782        0.2994      -0.3775         0.9713      -1.0495
 Sum       29.2174        2.0451      27.1723        -3.7988      33.0162
 
 Leave Link  607 at Fri Oct  4 20:04:10 2024, MaxMem=  2097152000 cpu:              43.3 elap:               5.9
 (Enter /uufs/chpc.utah.edu/sys/installdir/gaussian16/C01/AVX/g16/l9999.exe)
 Unable to Open any file for archive entry.
 1\1\GINC-NOTCH056\SP\RAPFD\6-31G(d)\C5H5F1N2O3S1\U1318517\04-Oct-2024\
 0\\#p apfd/6-31G* volume NMR pop=NPA geom=check guess=read\\ID-4007\\0
 ,1\F,0,1.524981871,-0.9790602015,-0.2976058317\S,0,2.7741915171,-0.009
 3028377,-0.0204940705\C,0,3.1650975037,0.4044811837,-1.716347125\C,0,2
 .9813634501,1.6984178279,-2.1630540076\N,0,3.304751798,2.0142102854,-3
 .4303202636\C,0,3.7848053876,1.0527483362,-4.1906169021\C,0,3.95872029
 47,-0.2667663235,-3.702558489\O,0,4.4494305303,-1.1710506971,-4.545078
 6497\C,0,4.6287903479,-2.4948644482,-4.0364769586\N,0,3.6487229494,-0.
 5869301455,-2.4590455509\O,0,2.2468046759,1.1626803919,0.6382757039\O,
 0,3.8097994402,-0.8308515468,0.5530855278\H,0,2.5836957631,2.479711359
 7,-1.5242340638\H,0,4.0520258782,1.2900611536,-5.2177044572\H,0,5.0412
 216452,-3.0662142929,-4.8673793837\H,0,3.6726008068,-2.9175680144,-3.7
 149750074\H,0,5.3192161409,-2.4924920307,-3.1882704709\\Version=ES64L-
 G16RevC.01\State=1-A\HF=-1026.0777654\RMSD=5.846e-09\Dipole=0.4108818,
 -0.4878496,-1.6505979\Quadrupole=0.8733608,2.2191939,-3.0925547,-0.714
 5266,-1.3145684,3.4623453\PG=C01 [X(C5H5F1N2O3S1)]\\@
 The archive entry for this job was punched.


 NOT WHAT WE DID SHALL BE THE TEST
 WHEN ACT AND WILL ARE DONE,
 BUT WHAT OUR LORD INFERS WE WOULD-
 HAD WE DIVINER BEEN.
           EMILY DICKINSON  POEMS NO. CLXXV
 Job cpu time:       0 days  0 hours  2 minutes 26.7 seconds.
 Elapsed time:       0 days  0 hours  0 minutes 14.4 seconds.
 File lengths (MBytes):  RWF=     40 Int=      0 D2E=      0 Chk=      5 Scr=      2
 Normal termination of Gaussian 16 at Fri Oct  4 20:04:12 2024.
