 Entering Gaussian System, Link 0=g16
 Input=ID-4008.com
 Output=ID-4008.log
 Initial command:
 /uufs/chpc.utah.edu/sys/installdir/gaussian16/C01/AVX/g16/l1.exe "/scratch/general/vast/u1318517/1930438-notchpeak.peaks/Gau-1098989.inp" -scrdir="/scratch/general/vast/u1318517/1930438-notchpeak.peaks/"
 Entering Link 1 = /uufs/chpc.utah.edu/sys/installdir/gaussian16/C01/AVX/g16/l1.exe PID=   1098991.
  
 Copyright (c) 1988-2019, Gaussian, Inc.  All Rights Reserved.
  
 This is part of the Gaussian(R) 16 program.  It is based on
 the Gaussian(R) 09 system (copyright 2009, Gaussian, Inc.),
 the Gaussian(R) 03 system (copyright 2003, Gaussian, Inc.),
 the Gaussian(R) 98 system (copyright 1998, Gaussian, Inc.),
 the Gaussian(R) 94 system (copyright 1995, Gaussian, Inc.),
 the Gaussian 92(TM) system (copyright 1992, Gaussian, Inc.),
 the Gaussian 90(TM) system (copyright 1990, Gaussian, Inc.),
 the Gaussian 88(TM) system (copyright 1988, Gaussian, Inc.),
 the Gaussian 86(TM) system (copyright 1986, Carnegie Mellon
 University), and the Gaussian 82(TM) system (copyright 1983,
 Carnegie Mellon University). Gaussian is a federally registered
 trademark of Gaussian, Inc.
  
 This software contains proprietary and confidential information,
 including trade secrets, belonging to Gaussian, Inc.
  
 This software is provided under written license and may be
 used, copied, transmitted, or stored only in accord with that
 written license.
  
 The following legend is applicable only to US Government
 contracts under FAR:
  
                    RESTRICTED RIGHTS LEGEND
  
 Use, reproduction and disclosure by the US Government is
 subject to restrictions as set forth in subparagraphs (a)
 and (c) of the Commercial Computer Software - Restricted
 Rights clause in FAR 52.227-19.
  
 Gaussian, Inc.
 340 Quinnipiac St., Bldg. 40, Wallingford CT 06492
  
  
 ---------------------------------------------------------------
 Warning -- This program may not be used in any manner that
 competes with the business of Gaussian, Inc. or will provide
 assistance to any competitor of Gaussian, Inc.  The licensee
 of this program is prohibited from giving any competitor of
 Gaussian, Inc. access to this program.  By using this program,
 the user acknowledges that Gaussian, Inc. is engaged in the
 business of creating and licensing software in the field of
 computational chemistry and represents and warrants to the
 licensee that it is not a competitor of Gaussian, Inc. and that
 it will not use this program in any manner prohibited above.
 ---------------------------------------------------------------
  

 Cite this work as:
 Gaussian 16, Revision C.01,
 M. J. Frisch, G. W. Trucks, H. B. Schlegel, G. E. Scuseria, 
 M. A. Robb, J. R. Cheeseman, G. Scalmani, V. Barone, 
 G. A. Petersson, H. Nakatsuji, X. Li, M. Caricato, A. V. Marenich, 
 J. Bloino, B. G. Janesko, R. Gomperts, B. Mennucci, H. P. Hratchian, 
 J. V. Ortiz, A. F. Izmaylov, J. L. Sonnenberg, D. Williams-Young, 
 F. Ding, F. Lipparini, F. Egidi, J. Goings, B. Peng, A. Petrone, 
 T. Henderson, D. Ranasinghe, V. G. Zakrzewski, J. Gao, N. Rega, 
 G. Zheng, W. Liang, M. Hada, M. Ehara, K. Toyota, R. Fukuda, 
 J. Hasegawa, M. Ishida, T. Nakajima, Y. Honda, O. Kitao, H. Nakai, 
 T. Vreven, K. Throssell, J. A. Montgomery, Jr., J. E. Peralta, 
 F. Ogliaro, M. J. Bearpark, J. J. Heyd, E. N. Brothers, K. N. Kudin, 
 V. N. Staroverov, T. A. Keith, R. Kobayashi, J. Normand, 
 K. Raghavachari, A. P. Rendell, J. C. Burant, S. S. Iyengar, 
 J. Tomasi, M. Cossi, J. M. Millam, M. Klene, C. Adamo, R. Cammi, 
 J. W. Ochterski, R. L. Martin, K. Morokuma, O. Farkas, 
 J. B. Foresman, and D. J. Fox, Gaussian, Inc., Wallingford CT, 2019.
 
 ******************************************
 Gaussian 16:  ES64L-G16RevC.01  3-Jul-2019
                 4-Oct-2024 
 ******************************************
 %nprocs=16
 Will use up to   16 processors via shared memory.
 %mem=16000MB
 %chk=ID-4008.chk
 -------------------------------
 #p apfd/6-31G* opt freq=noraman
 -------------------------------
 1/18=20,19=15,26=3,38=1/1,3;
 2/9=110,12=2,17=6,18=5,40=1/2;
 3/5=1,6=6,7=1,11=2,25=1,30=1,71=1,74=-44/1,2,3;
 4//1;
 5/5=2,38=5/2;
 6/7=2,8=2,9=2,10=2,28=1/1;
 7//1,2,3,16;
 1/18=20,19=15,26=3/3(2);
 2/9=110/2;
 99//99;
 2/9=110/2;
 3/5=1,6=6,7=1,11=2,25=1,30=1,71=1,74=-44/1,2,3;
 4/5=5,16=3,69=1/1;
 5/5=2,38=5/2;
 7//1,2,3,16;
 1/18=20,19=15,26=3/3(-5);
 2/9=110/2;
 6/7=2,8=2,9=2,10=2,19=2,28=1/1;
 99/9=1/99;
 Leave Link    1 at Fri Oct  4 19:57:58 2024, MaxMem=  2097152000 cpu:               1.2 elap:               0.1
 (Enter /uufs/chpc.utah.edu/sys/installdir/gaussian16/C01/AVX/g16/l101.exe)
 -------
 ID-4008
 -------
 Symbolic Z-matrix:
 Charge =  0 Multiplicity = 1
 F                     3.82409  -0.76661  -0.73021 
 S                     2.79225   0.1404    0.06407 
 C                     3.23384   1.83525  -0.23401 
 C                     2.51061   2.85456   0.36381 
 C                     2.87783   4.16126   0.05272 
 C                     3.93431   4.40282  -0.82868 
 O                     4.19154   5.71823  -1.08398 
 C                     5.22245   5.99858  -2.02435 
 C                     4.60351   3.30062  -1.35475 
 N                     4.28035   2.01233  -1.08301 
 O                     1.50279  -0.09702  -0.55735 
 O                     3.02546  -0.14017   1.46864 
 H                     1.68696   2.64718   1.03825 
 H                     2.33566   4.99734   0.48881 
 H                     5.23975   7.08009  -2.18963 
 H                     5.02626   5.51946  -2.98949 
 H                     6.19874   5.7018   -1.62782 
 H                     5.4429    3.40446  -2.03484 
 
 ITRead=  0  0  0  0  0  0  0  0  0  0  0  0  0  0  0  0  0  0
 MicOpt= -1 -1 -1 -1 -1 -1 -1 -1 -1 -1 -1 -1 -1 -1 -1 -1 -1 -1
 NAtoms=     18 NQM=       18 NQMF=       0 NMMI=      0 NMMIF=      0
                NMic=       0 NMicF=      0.
                    Isotopes and Nuclear Properties:
 (Nuclear quadrupole moments (NQMom) in fm**2, nuclear magnetic moments (NMagM)
  in nuclear magnetons)

  Atom         1           2           3           4           5           6           7           8           9          10
 IAtWgt=          19          32          12          12          12          12          16          12          12          14
 AtmWgt=  18.9984032  31.9720718  12.0000000  12.0000000  12.0000000  12.0000000  15.9949146  12.0000000  12.0000000  14.0030740
 NucSpn=           1           0           0           0           0           0           0           0           0           2
 AtZEff=  -0.0000000  -0.0000000  -0.0000000  -0.0000000  -0.0000000  -0.0000000  -0.0000000  -0.0000000  -0.0000000  -0.0000000
 NQMom=    0.0000000   0.0000000   0.0000000   0.0000000   0.0000000   0.0000000   0.0000000   0.0000000   0.0000000   2.0440000
 NMagM=    2.6288670   0.0000000   0.0000000   0.0000000   0.0000000   0.0000000   0.0000000   0.0000000   0.0000000   0.4037610
 AtZNuc=   9.0000000  16.0000000   6.0000000   6.0000000   6.0000000   6.0000000   8.0000000   6.0000000   6.0000000   7.0000000

  Atom        11          12          13          14          15          16          17          18
 IAtWgt=          16          16           1           1           1           1           1           1
 AtmWgt=  15.9949146  15.9949146   1.0078250   1.0078250   1.0078250   1.0078250   1.0078250   1.0078250
 NucSpn=           0           0           1           1           1           1           1           1
 AtZEff=  -0.0000000  -0.0000000  -0.0000000  -0.0000000  -0.0000000  -0.0000000  -0.0000000  -0.0000000
 NQMom=    0.0000000   0.0000000   0.0000000   0.0000000   0.0000000   0.0000000   0.0000000   0.0000000
 NMagM=    0.0000000   0.0000000   2.7928460   2.7928460   2.7928460   2.7928460   2.7928460   2.7928460
 AtZNuc=   8.0000000   8.0000000   1.0000000   1.0000000   1.0000000   1.0000000   1.0000000   1.0000000
 Leave Link  101 at Fri Oct  4 19:57:59 2024, MaxMem=  2097152000 cpu:              13.0 elap:               0.8
 (Enter /uufs/chpc.utah.edu/sys/installdir/gaussian16/C01/AVX/g16/l103.exe)

 GradGradGradGradGradGradGradGradGradGradGradGradGradGradGradGradGradGrad
 Berny optimization.
 Initialization pass.
                           ----------------------------
                           !    Initial Parameters    !
                           ! (Angstroms and Degrees)  !
 --------------------------                            --------------------------
 ! Name  Definition              Value          Derivative Info.                !
 --------------------------------------------------------------------------------
 ! R1    R(1,2)                  1.5869         estimate D2E/DX2                !
 ! R2    R(2,3)                  1.7766         estimate D2E/DX2                !
 ! R3    R(2,11)                 1.4509         estimate D2E/DX2                !
 ! R4    R(2,12)                 1.4512         estimate D2E/DX2                !
 ! R5    R(3,4)                  1.3854         estimate D2E/DX2                !
 ! R6    R(3,10)                 1.3592         estimate D2E/DX2                !
 ! R7    R(4,5)                  1.3925         estimate D2E/DX2                !
 ! R8    R(4,13)                 1.0846         estimate D2E/DX2                !
 ! R9    R(5,6)                  1.3969         estimate D2E/DX2                !
 ! R10   R(5,14)                 1.0877         estimate D2E/DX2                !
 ! R11   R(6,7)                  1.3644         estimate D2E/DX2                !
 ! R12   R(6,9)                  1.3926         estimate D2E/DX2                !
 ! R13   R(7,8)                  1.4233         estimate D2E/DX2                !
 ! R14   R(8,15)                 1.0942         estimate D2E/DX2                !
 ! R15   R(8,16)                 1.0952         estimate D2E/DX2                !
 ! R16   R(8,17)                 1.0947         estimate D2E/DX2                !
 ! R17   R(9,10)                 1.3557         estimate D2E/DX2                !
 ! R18   R(9,18)                 1.0853         estimate D2E/DX2                !
 ! A1    A(1,2,3)              107.4372         estimate D2E/DX2                !
 ! A2    A(1,2,11)             105.6621         estimate D2E/DX2                !
 ! A3    A(1,2,12)             105.6315         estimate D2E/DX2                !
 ! A4    A(3,2,11)             107.7663         estimate D2E/DX2                !
 ! A5    A(3,2,12)             107.8718         estimate D2E/DX2                !
 ! A6    A(11,2,12)            121.7162         estimate D2E/DX2                !
 ! A7    A(2,3,4)              119.9815         estimate D2E/DX2                !
 ! A8    A(2,3,10)             114.8643         estimate D2E/DX2                !
 ! A9    A(4,3,10)             125.143          estimate D2E/DX2                !
 ! A10   A(3,4,5)              117.1506         estimate D2E/DX2                !
 ! A11   A(3,4,13)             121.6071         estimate D2E/DX2                !
 ! A12   A(5,4,13)             121.2398         estimate D2E/DX2                !
 ! A13   A(4,5,6)              120.1767         estimate D2E/DX2                !
 ! A14   A(4,5,14)             120.0179         estimate D2E/DX2                !
 ! A15   A(6,5,14)             119.8028         estimate D2E/DX2                !
 ! A16   A(5,6,7)              115.2998         estimate D2E/DX2                !
 ! A17   A(5,6,9)              117.7043         estimate D2E/DX2                !
 ! A18   A(7,6,9)              126.9951         estimate D2E/DX2                !
 ! A19   A(6,7,8)              116.7491         estimate D2E/DX2                !
 ! A20   A(7,8,15)             107.8151         estimate D2E/DX2                !
 ! A21   A(7,8,16)             111.4885         estimate D2E/DX2                !
 ! A22   A(7,8,17)             110.6855         estimate D2E/DX2                !
 ! A23   A(15,8,16)            107.5842         estimate D2E/DX2                !
 ! A24   A(15,8,17)            107.9727         estimate D2E/DX2                !
 ! A25   A(16,8,17)            111.1213         estimate D2E/DX2                !
 ! A26   A(6,9,10)             124.1824         estimate D2E/DX2                !
 ! A27   A(6,9,18)             122.1838         estimate D2E/DX2                !
 ! A28   A(10,9,18)            113.6333         estimate D2E/DX2                !
 ! A29   A(3,10,9)             115.6292         estimate D2E/DX2                !
 ! D1    D(1,2,3,4)           -178.7259         estimate D2E/DX2                !
 ! D2    D(1,2,3,10)             2.4312         estimate D2E/DX2                !
 ! D3    D(11,2,3,4)            67.8347         estimate D2E/DX2                !
 ! D4    D(11,2,3,10)         -111.0083         estimate D2E/DX2                !
 ! D5    D(12,2,3,4)           -65.271          estimate D2E/DX2                !
 ! D6    D(12,2,3,10)          115.886          estimate D2E/DX2                !
 ! D7    D(2,3,4,5)           -177.8097         estimate D2E/DX2                !
 ! D8    D(2,3,4,13)             1.6159         estimate D2E/DX2                !
 ! D9    D(10,3,4,5)             0.9064         estimate D2E/DX2                !
 ! D10   D(10,3,4,13)         -179.6679         estimate D2E/DX2                !
 ! D11   D(2,3,10,9)           177.9905         estimate D2E/DX2                !
 ! D12   D(4,3,10,9)            -0.7838         estimate D2E/DX2                !
 ! D13   D(3,4,5,6)              0.0349         estimate D2E/DX2                !
 ! D14   D(3,4,5,14)           179.4498         estimate D2E/DX2                !
 ! D15   D(13,4,5,6)          -179.393          estimate D2E/DX2                !
 ! D16   D(13,4,5,14)            0.0219         estimate D2E/DX2                !
 ! D17   D(4,5,6,7)            178.721          estimate D2E/DX2                !
 ! D18   D(4,5,6,9)             -0.9774         estimate D2E/DX2                !
 ! D19   D(14,5,6,7)            -0.6951         estimate D2E/DX2                !
 ! D20   D(14,5,6,9)           179.6065         estimate D2E/DX2                !
 ! D21   D(5,6,7,8)           -177.2601         estimate D2E/DX2                !
 ! D22   D(9,6,7,8)              2.4056         estimate D2E/DX2                !
 ! D23   D(5,6,9,10)             1.1427         estimate D2E/DX2                !
 ! D24   D(5,6,9,18)          -179.1386         estimate D2E/DX2                !
 ! D25   D(7,6,9,10)          -178.516          estimate D2E/DX2                !
 ! D26   D(7,6,9,18)             1.2027         estimate D2E/DX2                !
 ! D27   D(6,7,8,15)           174.6316         estimate D2E/DX2                !
 ! D28   D(6,7,8,16)            56.7569         estimate D2E/DX2                !
 ! D29   D(6,7,8,17)           -67.4784         estimate D2E/DX2                !
 ! D30   D(6,9,10,3)            -0.286          estimate D2E/DX2                !
 ! D31   D(18,9,10,3)          179.9739         estimate D2E/DX2                !
 --------------------------------------------------------------------------------
 Trust Radius=3.00D-01 FncErr=1.00D-07 GrdErr=1.00D-06 EigMax=2.50D+02 EigMin=1.00D-04
 Number of steps in this run=     88 maximum allowed number of steps=    108.
 GradGradGradGradGradGradGradGradGradGradGradGradGradGradGradGradGradGrad

 Leave Link  103 at Fri Oct  4 19:57:59 2024, MaxMem=  2097152000 cpu:               0.3 elap:               0.0
 (Enter /uufs/chpc.utah.edu/sys/installdir/gaussian16/C01/AVX/g16/l202.exe)
                          Input orientation:                          
 ---------------------------------------------------------------------
 Center     Atomic      Atomic             Coordinates (Angstroms)
 Number     Number       Type             X           Y           Z
 ---------------------------------------------------------------------
      1          9           0        3.824090   -0.766610   -0.730210
      2         16           0        2.792250    0.140400    0.064070
      3          6           0        3.233840    1.835250   -0.234010
      4          6           0        2.510610    2.854560    0.363810
      5          6           0        2.877830    4.161260    0.052720
      6          6           0        3.934310    4.402820   -0.828680
      7          8           0        4.191540    5.718230   -1.083980
      8          6           0        5.222450    5.998580   -2.024350
      9          6           0        4.603510    3.300620   -1.354750
     10          7           0        4.280350    2.012330   -1.083010
     11          8           0        1.502790   -0.097020   -0.557350
     12          8           0        3.025460   -0.140170    1.468640
     13          1           0        1.686960    2.647180    1.038250
     14          1           0        2.335660    4.997340    0.488810
     15          1           0        5.239750    7.080090   -2.189630
     16          1           0        5.026260    5.519460   -2.989490
     17          1           0        6.198740    5.701800   -1.627820
     18          1           0        5.442900    3.404460   -2.034840
 ---------------------------------------------------------------------
                    Distance matrix (angstroms):
                    1          2          3          4          5
     1  F    0.000000
     2  S    1.586897   0.000000
     3  C    2.713722   1.776618   0.000000
     4  C    4.004370   2.745147   1.385440   0.000000
     5  C    5.078611   4.021787   2.370502   1.392513   0.000000
     6  C    5.171542   4.502169   2.727033   2.417863   1.396913
     7  O    6.504869   5.864147   4.088664   3.622462   2.332826
     8  C    7.028371   6.677248   4.949061   4.789806   3.631419
     9  C    4.188067   3.909054   2.297687   2.744567   2.387393
    10  N    2.838159   2.652236   1.359169   2.436107   2.806215
    11  O    2.422120   1.450944   2.614336   3.252086   4.516179
    12  O    2.421813   1.451180   2.616242   3.233284   4.530886
    13  H    4.398720   2.907686   2.161183   1.084562   2.163765
    14  H    6.076558   4.896810   3.365711   2.153541   1.087728
    15  H    8.105844   7.696020   5.946131   5.641220   4.373370
    16  H    6.787064   6.576421   4.937494   4.967374   3.964278
    17  H    6.948740   6.737643   5.067894   5.067116   4.028141
    18  H    4.660518   4.699517   3.253514   3.828085   3.392674
                    6          7          8          9         10
     6  C    0.000000
     7  O    1.364423   0.000000
     8  C    2.373896   1.423259   0.000000
     9  C    1.392632   2.467362   2.847883   0.000000
    10  N    2.428759   3.706964   4.202840   1.355716   0.000000
    11  O    5.121960   6.428363   7.290014   4.668433   3.527111
    12  O    5.171310   6.495880   7.396756   4.722373   3.566360
    13  H    3.408560   4.495345   5.754224   3.828798   3.410051
    14  H    2.155207   2.537251   3.956262   3.379455   3.893934
    15  H    3.274772   2.043494   1.094203   3.922527   5.275154
    16  H    2.666147   2.089793   1.095236   2.788251   4.060912
    17  H    2.730131   2.079635   1.094740   2.895685   4.193951
    18  H    2.174256   2.797064   2.603491   1.085302   2.048299
                   11         12         13         14         15
    11  O    0.000000
    12  O    2.534763   0.000000
    13  H    3.179700   3.121880   0.000000
    14  H    5.266937   5.275405   2.499189   0.000000
    15  H    8.254703   8.391554   6.533928   4.466053   0.000000
    16  H    7.062223   7.477268   5.968551   4.428375   1.766613
    17  H    7.538181   7.333920   6.065871   4.460916   1.770586
    18  H    5.474286   5.539205   4.911664   4.308250   3.684493
                   16         17         18
    16  H    0.000000
    17  H    1.806129   0.000000
    18  H    2.357577   2.452495   0.000000
 Stoichiometry    C6H6FNO3S
 Framework group  C1[X(C6H6FNO3S)]
 Deg. of freedom    48
 Full point group                 C1      NOp   1
 Largest Abelian subgroup         C1      NOp   1
 Largest concise Abelian subgroup C1      NOp   1
                         Standard orientation:                         
 ---------------------------------------------------------------------
 Center     Atomic      Atomic             Coordinates (Angstroms)
 Number     Number       Type             X           Y           Z
 ---------------------------------------------------------------------
      1          9           0        2.598816   -1.545590   -0.044503
      2         16           0        2.251801    0.001603    0.018882
      3          6           0        0.482452    0.152994   -0.034538
      4          6           0       -0.105831    1.407254   -0.020432
      5          6           0       -1.497472    1.456401   -0.016903
      6          6           0       -2.241866    0.274390   -0.026635
      7          8           0       -3.596080    0.437863    0.005446
      8          6           0       -4.383267   -0.746751    0.057340
      9          6           0       -1.543751   -0.930139   -0.060786
     10          7           0       -0.191499   -1.026980   -0.062722
     11          8           0        2.695198    0.449261    1.325878
     12          8           0        2.784741    0.572298   -1.204313
     13          1           0        0.489062    2.313940   -0.003194
     14          1           0       -2.008007    2.416666    0.003073
     15          1           0       -5.429449   -0.448598    0.175192
     16          1           0       -4.117120   -1.367874    0.919265
     17          1           0       -4.295855   -1.310379   -0.877079
     18          1           0       -2.048752   -1.890508   -0.084167
 ---------------------------------------------------------------------
 Rotational constants (GHZ):           2.3980242           0.4167383           0.3837212
 Leave Link  202 at Fri Oct  4 19:57:59 2024, MaxMem=  2097152000 cpu:               0.1 elap:               0.0
 (Enter /uufs/chpc.utah.edu/sys/installdir/gaussian16/C01/AVX/g16/l301.exe)
 Standard basis: 6-31G(d) (6D, 7F)
 Ernie: Thresh=  0.10000D-02 Tol=  0.10000D-05 Strict=F.
 There are   196 symmetry adapted cartesian basis functions of A   symmetry.
 There are   196 symmetry adapted basis functions of A   symmetry.
   196 basis functions,   384 primitive gaussians,   196 cartesian basis functions
    49 alpha electrons       49 beta electrons
       nuclear repulsion energy       831.2186917258 Hartrees.
 IExCor= 3731 DFT=T Ex+Corr=APFD ExCW=0 ScaHFX=  0.229450
 ScaDFX=  1.000000  1.000000  1.000000  1.000000 ScalE2=  1.000000  1.000000
 IRadAn=      5 IRanWt=     -1 IRanGd=            0 ICorTp=0 IEmpDi=211
 NAtoms=   18 NActive=   18 NUniq=   18 SFac= 1.00D+00 NAtFMM=   60 NAOKFM=F Big=F
 Integral buffers will be    131072 words long.
 Raffenetti 2 integral format.
 Two-electron integral symmetry is turned on.
 R6APFD:  NTU= -4 IXU= 1 FactS= 1.050
 R6Disp:  Petersson-Frisch Dispersion energy=       -0.0142850137 Hartrees.
 Nuclear repulsion after empirical dispersion term =      831.2044067120 Hartrees.
 Leave Link  301 at Fri Oct  4 19:57:59 2024, MaxMem=  2097152000 cpu:               1.0 elap:               0.1
 (Enter /uufs/chpc.utah.edu/sys/installdir/gaussian16/C01/AVX/g16/l302.exe)
 NPDir=0 NMtPBC=     1 NCelOv=     1 NCel=       1 NClECP=     1 NCelD=      1
         NCelK=      1 NCelE2=     1 NClLst=     1 CellRange=     0.0.
 One-electron integrals computed using PRISM.
 One-electron integral symmetry used in STVInt
 NBasis=   196 RedAO= T EigKep=  7.62D-04  NBF=   196
 NBsUse=   196 1.00D-06 EigRej= -1.00D+00 NBFU=   196
 Precomputing XC quadrature grid using
 IXCGrd= 4 IRadAn=           5 IRanWt=          -1 IRanGd=           0 AccXCQ= 0.00D+00.
 Generated NRdTot=       0 NPtTot=           0 NUsed=           0 NTot=          32
 NSgBfM=   195   195   195   195   195 MxSgAt=    18 MxSgA2=    18.
 Leave Link  302 at Fri Oct  4 19:58:00 2024, MaxMem=  2097152000 cpu:               3.8 elap:               0.3
 (Enter /uufs/chpc.utah.edu/sys/installdir/gaussian16/C01/AVX/g16/l303.exe)
 DipDrv:  MaxL=1.
 Leave Link  303 at Fri Oct  4 19:58:00 2024, MaxMem=  2097152000 cpu:               0.8 elap:               0.1
 (Enter /uufs/chpc.utah.edu/sys/installdir/gaussian16/C01/AVX/g16/l401.exe)
 ExpMin= 1.17D-01 ExpMax= 2.19D+04 ExpMxC= 3.30D+03 IAcc=3 IRadAn=         5 AccDes= 0.00D+00
 Harris functional with IExCor= 3731 and IRadAn=       5 diagonalized for initial guess.
 HarFok:  IExCor= 3731 AccDes= 0.00D+00 IRadAn=         5 IDoV= 1 UseB2=F ITyADJ=14
 ICtDFT=  3500011 ScaDFX=  1.000000  1.000000  1.000000  1.000000
 FoFCou: FMM=F IPFlag=           0 FMFlag=      100000 FMFlg1=           0
         NFxFlg=           0 DoJE=T BraDBF=F KetDBF=T FulRan=T
         wScrn=  0.000000 ICntrl=       500 IOpCl=  0 I1Cent=   200000004 NGrid=           0
         NMat0=    1 NMatS0=      1 NMatT0=    0 NMatD0=    1 NMtDS0=    0 NMtDT0=    0
 Petite list used in FoFCou.
 Harris En= -987.474837578287    
 JPrj=0 DoOrth=F DoCkMO=F.
 Leave Link  401 at Fri Oct  4 19:58:01 2024, MaxMem=  2097152000 cpu:              15.1 elap:               1.0
 (Enter /uufs/chpc.utah.edu/sys/installdir/gaussian16/C01/AVX/g16/l502.exe)
 Integral symmetry usage will be decided dynamically.
 Closed shell SCF:
 Using DIIS extrapolation, IDIIS=  1040.
 NGot=  2097152000 LenX=  2097069461 LenY=  2097030604
 Requested convergence on RMS density matrix=1.00D-08 within 128 cycles.
 Requested convergence on MAX density matrix=1.00D-06.
 Requested convergence on             energy=1.00D-06.
 No special actions if energy rises.
 Fock matrices will be formed incrementally for  20 cycles.
 Integral accuracy reduced to 1.0D-05 until final iterations.

 Cycle   1  Pass 0  IDiag  1:
 FoFJK:  IHMeth= 1 ICntrl=       0 DoSepK=F KAlg= 0 I1Cent=           0 FoldK=F
 IRaf= 870000000 NMat=       1 IRICut=       1 DoRegI=T DoRafI=F ISym2E= 0 IDoP0=0 IntGTp=1.
 FoFCou: FMM=F IPFlag=           0 FMFlag=      100000 FMFlg1=           0
         NFxFlg=           0 DoJE=F BraDBF=F KetDBF=F FulRan=T
         wScrn=  0.000000 ICntrl=         0 IOpCl=  0 I1Cent=           0 NGrid=           0
         NMat0=    1 NMatS0=      1 NMatT0=    0 NMatD0=    1 NMtDS0=    0 NMtDT0=    0
 Symmetry not used in FoFCou.
 E= -1009.66905475876    
 DIIS: error= 9.60D-02 at cycle   1 NSaved=   1.
 NSaved= 1 IEnMin= 1 EnMin= -1009.66905475876     IErMin= 1 ErrMin= 9.60D-02
 ErrMax= 9.60D-02  0.00D+00 EMaxC= 1.00D-01 BMatC= 9.62D-01 BMatP= 9.62D-01
 IDIUse=3 WtCom= 3.97D-02 WtEn= 9.60D-01
 Coeff-Com:  0.100D+01
 Coeff-En:   0.100D+01
 Coeff:      0.100D+01
 Gap=     0.276 Goal=   None    Shift=    0.000
 GapD=    0.276 DampG=1.000 DampE=0.500 DampFc=0.5000 IDamp=-1.
 Damping current iteration by 5.00D-01
 RMSDP=8.47D-03 MaxDP=5.88D-01              OVMax= 3.03D-01

 Cycle   2  Pass 0  IDiag  1:
 RMSU=  4.23D-03    CP:  1.01D+00
 E= -1009.78070039994     Delta-E=       -0.111645641182 Rises=F Damp=T
 DIIS: error= 4.04D-02 at cycle   2 NSaved=   2.
 NSaved= 2 IEnMin= 2 EnMin= -1009.78070039994     IErMin= 2 ErrMin= 4.04D-02
 ErrMax= 4.04D-02  0.00D+00 EMaxC= 1.00D-01 BMatC= 1.72D-01 BMatP= 9.62D-01
 IDIUse=3 WtCom= 5.96D-01 WtEn= 4.04D-01
 Coeff-Com: -0.512D-01 0.105D+01
 Coeff-En:   0.287D+00 0.713D+00
 Coeff:      0.855D-01 0.914D+00
 Gap=     0.318 Goal=   None    Shift=    0.000
 RMSDP=2.88D-03 MaxDP=7.25D-02 DE=-1.12D-01 OVMax= 2.18D-01

 Cycle   3  Pass 0  IDiag  1:
 RMSU=  2.77D-03    CP:  1.01D+00  8.22D-01
 E= -1009.94113020625     Delta-E=       -0.160429806309 Rises=F Damp=F
 DIIS: error= 2.51D-02 at cycle   3 NSaved=   3.
 NSaved= 3 IEnMin= 3 EnMin= -1009.94113020625     IErMin= 3 ErrMin= 2.51D-02
 ErrMax= 2.51D-02  0.00D+00 EMaxC= 1.00D-01 BMatC= 1.20D-01 BMatP= 1.72D-01
 IDIUse=3 WtCom= 7.49D-01 WtEn= 2.51D-01
 Coeff-Com: -0.164D+00 0.558D+00 0.606D+00
 Coeff-En:   0.000D+00 0.326D-01 0.967D+00
 Coeff:     -0.122D+00 0.426D+00 0.696D+00
 Gap=     0.211 Goal=   None    Shift=    0.000
 RMSDP=2.51D-03 MaxDP=7.21D-02 DE=-1.60D-01 OVMax= 1.20D-01

 Cycle   4  Pass 0  IDiag  1:
 RMSU=  1.38D-03    CP:  1.01D+00  1.08D+00  3.55D-01
 E= -1009.99396188560     Delta-E=       -0.052831679346 Rises=F Damp=F
 DIIS: error= 1.73D-02 at cycle   4 NSaved=   4.
 NSaved= 4 IEnMin= 4 EnMin= -1009.99396188560     IErMin= 4 ErrMin= 1.73D-02
 ErrMax= 1.73D-02  0.00D+00 EMaxC= 1.00D-01 BMatC= 5.13D-02 BMatP= 1.20D-01
 IDIUse=3 WtCom= 8.27D-01 WtEn= 1.73D-01
 Coeff-Com: -0.585D-01 0.164D+00 0.438D+00 0.456D+00
 Coeff-En:   0.000D+00 0.000D+00 0.343D+00 0.657D+00
 Coeff:     -0.483D-01 0.136D+00 0.421D+00 0.491D+00
 Gap=     0.225 Goal=   None    Shift=    0.000
 RMSDP=1.20D-03 MaxDP=3.32D-02 DE=-5.28D-02 OVMax= 5.35D-02

 Cycle   5  Pass 0  IDiag  1:
 RMSU=  4.22D-04    CP:  1.01D+00  9.94D-01  6.15D-01  4.29D-01
 E= -1010.03370672524     Delta-E=       -0.039744839639 Rises=F Damp=F
 DIIS: error= 2.98D-03 at cycle   5 NSaved=   5.
 NSaved= 5 IEnMin= 5 EnMin= -1010.03370672524     IErMin= 5 ErrMin= 2.98D-03
 ErrMax= 2.98D-03  0.00D+00 EMaxC= 1.00D-01 BMatC= 2.49D-03 BMatP= 5.13D-02
 IDIUse=3 WtCom= 9.70D-01 WtEn= 2.98D-02
 Coeff-Com: -0.188D-01 0.464D-01 0.214D+00 0.307D+00 0.451D+00
 Coeff-En:   0.000D+00 0.000D+00 0.000D+00 0.000D+00 0.100D+01
 Coeff:     -0.182D-01 0.450D-01 0.208D+00 0.298D+00 0.468D+00
 Gap=     0.211 Goal=   None    Shift=    0.000
 RMSDP=3.06D-04 MaxDP=8.91D-03 DE=-3.97D-02 OVMax= 2.13D-02

 Cycle   6  Pass 0  IDiag  1:
 RMSU=  1.36D-04    CP:  1.01D+00  1.01D+00  6.01D-01  5.27D-01  4.53D-01
 E= -1010.03588681026     Delta-E=       -0.002180085024 Rises=F Damp=F
 DIIS: error= 8.58D-04 at cycle   6 NSaved=   6.
 NSaved= 6 IEnMin= 6 EnMin= -1010.03588681026     IErMin= 6 ErrMin= 8.58D-04
 ErrMax= 8.58D-04  0.00D+00 EMaxC= 1.00D-01 BMatC= 1.15D-04 BMatP= 2.49D-03
 IDIUse=3 WtCom= 9.91D-01 WtEn= 8.58D-03
 Coeff-Com: -0.127D-02 0.159D-02 0.344D-01 0.676D-01 0.228D+00 0.670D+00
 Coeff-En:   0.000D+00 0.000D+00 0.000D+00 0.000D+00 0.000D+00 0.100D+01
 Coeff:     -0.126D-02 0.158D-02 0.341D-01 0.671D-01 0.226D+00 0.673D+00
 Gap=     0.211 Goal=   None    Shift=    0.000
 RMSDP=7.91D-05 MaxDP=1.69D-03 DE=-2.18D-03 OVMax= 5.46D-03

 Cycle   7  Pass 0  IDiag  1:
 RMSU=  4.12D-05    CP:  1.01D+00  1.00D+00  6.06D-01  5.27D-01  5.49D-01
                    CP:  6.18D-01
 E= -1010.03598711426     Delta-E=       -0.000100303998 Rises=F Damp=F
 DIIS: error= 3.97D-04 at cycle   7 NSaved=   7.
 NSaved= 7 IEnMin= 7 EnMin= -1010.03598711426     IErMin= 7 ErrMin= 3.97D-04
 ErrMax= 3.97D-04  0.00D+00 EMaxC= 1.00D-01 BMatC= 1.99D-05 BMatP= 1.15D-04
 IDIUse=3 WtCom= 9.96D-01 WtEn= 3.97D-03
 Coeff-Com:  0.694D-03-0.230D-02 0.212D-02 0.131D-01 0.932D-01 0.408D+00
 Coeff-Com:  0.485D+00
 Coeff-En:   0.000D+00 0.000D+00 0.000D+00 0.000D+00 0.000D+00 0.115D+00
 Coeff-En:   0.885D+00
 Coeff:      0.691D-03-0.229D-02 0.211D-02 0.131D-01 0.929D-01 0.407D+00
 Coeff:      0.487D+00
 Gap=     0.211 Goal=   None    Shift=    0.000
 RMSDP=2.41D-05 MaxDP=6.89D-04 DE=-1.00D-04 OVMax= 1.68D-03

 Cycle   8  Pass 0  IDiag  1:
 RMSU=  1.19D-05    CP:  1.01D+00  1.00D+00  6.05D-01  5.28D-01  5.46D-01
                    CP:  7.06D-01  6.02D-01
 E= -1010.03600645887     Delta-E=       -0.000019344615 Rises=F Damp=F
 DIIS: error= 6.25D-05 at cycle   8 NSaved=   8.
 NSaved= 8 IEnMin= 8 EnMin= -1010.03600645887     IErMin= 8 ErrMin= 6.25D-05
 ErrMax= 6.25D-05  0.00D+00 EMaxC= 1.00D-01 BMatC= 1.06D-06 BMatP= 1.99D-05
 IDIUse=1 WtCom= 1.00D+00 WtEn= 0.00D+00
 Coeff-Com:  0.509D-03-0.139D-02-0.227D-02 0.554D-03 0.302D-01 0.171D+00
 Coeff-Com:  0.256D+00 0.546D+00
 Coeff:      0.509D-03-0.139D-02-0.227D-02 0.554D-03 0.302D-01 0.171D+00
 Coeff:      0.256D+00 0.546D+00
 Gap=     0.211 Goal=   None    Shift=    0.000
 RMSDP=5.99D-06 MaxDP=1.65D-04 DE=-1.93D-05 OVMax= 2.78D-04

 Initial convergence to 1.0D-05 achieved.  Increase integral accuracy.
 Cycle   9  Pass 1  IDiag  1:
 E= -1010.03601940065     Delta-E=       -0.000012941772 Rises=F Damp=F
 DIIS: error= 2.02D-05 at cycle   1 NSaved=   1.
 NSaved= 1 IEnMin= 1 EnMin= -1010.03601940065     IErMin= 1 ErrMin= 2.02D-05
 ErrMax= 2.02D-05  0.00D+00 EMaxC= 1.00D-01 BMatC= 9.84D-08 BMatP= 9.84D-08
 IDIUse=1 WtCom= 1.00D+00 WtEn= 0.00D+00
 Coeff-Com:  0.100D+01
 Coeff:      0.100D+01
 Gap=     0.211 Goal=   None    Shift=    0.000
 RMSDP=5.99D-06 MaxDP=1.65D-04 DE=-1.29D-05 OVMax= 1.89D-04

 Cycle  10  Pass 1  IDiag  1:
 RMSU=  6.04D-06    CP:  1.00D+00
 E= -1010.03601933670     Delta-E=        0.000000063947 Rises=F Damp=F
 DIIS: error= 4.00D-05 at cycle   2 NSaved=   2.
 NSaved= 2 IEnMin= 1 EnMin= -1010.03601940065     IErMin= 1 ErrMin= 2.02D-05
 ErrMax= 4.00D-05  0.00D+00 EMaxC= 1.00D-01 BMatC= 1.60D-07 BMatP= 9.84D-08
 IDIUse=1 WtCom= 1.00D+00 WtEn= 0.00D+00
 Coeff-Com:  0.569D+00 0.431D+00
 Coeff:      0.569D+00 0.431D+00
 Gap=     0.211 Goal=   None    Shift=    0.000
 RMSDP=2.40D-06 MaxDP=6.48D-05 DE= 6.39D-08 OVMax= 1.63D-04

 Cycle  11  Pass 1  IDiag  1:
 RMSU=  1.97D-06    CP:  1.00D+00  7.74D-01
 E= -1010.03601947283     Delta-E=       -0.000000136131 Rises=F Damp=F
 DIIS: error= 1.20D-05 at cycle   3 NSaved=   3.
 NSaved= 3 IEnMin= 3 EnMin= -1010.03601947283     IErMin= 3 ErrMin= 1.20D-05
 ErrMax= 1.20D-05  0.00D+00 EMaxC= 1.00D-01 BMatC= 1.11D-08 BMatP= 9.84D-08
 IDIUse=1 WtCom= 1.00D+00 WtEn= 0.00D+00
 Coeff-Com:  0.137D+00 0.224D+00 0.639D+00
 Coeff:      0.137D+00 0.224D+00 0.639D+00
 Gap=     0.211 Goal=   None    Shift=    0.000
 RMSDP=7.00D-07 MaxDP=1.88D-05 DE=-1.36D-07 OVMax= 4.59D-05

 Cycle  12  Pass 1  IDiag  1:
 RMSU=  4.97D-07    CP:  1.00D+00  8.13D-01  7.80D-01
 E= -1010.03601948175     Delta-E=       -0.000000008919 Rises=F Damp=F
 DIIS: error= 3.40D-06 at cycle   4 NSaved=   4.
 NSaved= 4 IEnMin= 4 EnMin= -1010.03601948175     IErMin= 4 ErrMin= 3.40D-06
 ErrMax= 3.40D-06  0.00D+00 EMaxC= 1.00D-01 BMatC= 2.11D-09 BMatP= 1.11D-08
 IDIUse=1 WtCom= 1.00D+00 WtEn= 0.00D+00
 Coeff-Com:  0.911D-02 0.799D-01 0.377D+00 0.534D+00
 Coeff:      0.911D-02 0.799D-01 0.377D+00 0.534D+00
 Gap=     0.211 Goal=   None    Shift=    0.000
 RMSDP=2.79D-07 MaxDP=7.88D-06 DE=-8.92D-09 OVMax= 1.92D-05

 Cycle  13  Pass 1  IDiag  1:
 RMSU=  1.42D-07    CP:  1.00D+00  8.14D-01  8.32D-01  5.66D-01
 E= -1010.03601948361     Delta-E=       -0.000000001863 Rises=F Damp=F
 DIIS: error= 8.02D-07 at cycle   5 NSaved=   5.
 NSaved= 5 IEnMin= 5 EnMin= -1010.03601948361     IErMin= 5 ErrMin= 8.02D-07
 ErrMax= 8.02D-07  0.00D+00 EMaxC= 1.00D-01 BMatC= 2.12D-10 BMatP= 2.11D-09
 IDIUse=1 WtCom= 1.00D+00 WtEn= 0.00D+00
 Coeff-Com: -0.359D-02 0.342D-01 0.184D+00 0.333D+00 0.452D+00
 Coeff:     -0.359D-02 0.342D-01 0.184D+00 0.333D+00 0.452D+00
 Gap=     0.211 Goal=   None    Shift=    0.000
 RMSDP=8.05D-08 MaxDP=1.89D-06 DE=-1.86D-09 OVMax= 5.06D-06

 Cycle  14  Pass 1  IDiag  1:
 RMSU=  5.07D-08    CP:  1.00D+00  8.17D-01  8.25D-01  5.92D-01  6.09D-01
 E= -1010.03601948380     Delta-E=       -0.000000000189 Rises=F Damp=F
 DIIS: error= 1.84D-07 at cycle   6 NSaved=   6.
 NSaved= 6 IEnMin= 6 EnMin= -1010.03601948380     IErMin= 6 ErrMin= 1.84D-07
 ErrMax= 1.84D-07  0.00D+00 EMaxC= 1.00D-01 BMatC= 7.93D-12 BMatP= 2.12D-10
 IDIUse=1 WtCom= 1.00D+00 WtEn= 0.00D+00
 Coeff-Com: -0.249D-02 0.112D-01 0.598D-01 0.126D+00 0.214D+00 0.591D+00
 Coeff:     -0.249D-02 0.112D-01 0.598D-01 0.126D+00 0.214D+00 0.591D+00
 Gap=     0.211 Goal=   None    Shift=    0.000
 RMSDP=1.96D-08 MaxDP=4.70D-07 DE=-1.89D-10 OVMax= 9.57D-07

 Cycle  15  Pass 1  IDiag  1:
 RMSU=  1.66D-08    CP:  1.00D+00  8.18D-01  8.24D-01  6.04D-01  6.54D-01
                    CP:  9.11D-01
 E= -1010.03601948381     Delta-E=       -0.000000000010 Rises=F Damp=F
 DIIS: error= 7.72D-08 at cycle   7 NSaved=   7.
 NSaved= 7 IEnMin= 7 EnMin= -1010.03601948381     IErMin= 7 ErrMin= 7.72D-08
 ErrMax= 7.72D-08  0.00D+00 EMaxC= 1.00D-01 BMatC= 1.34D-12 BMatP= 7.93D-12
 IDIUse=1 WtCom= 1.00D+00 WtEn= 0.00D+00
 Coeff-Com: -0.568D-03-0.160D-02-0.101D-01-0.646D-02 0.113D-01 0.293D+00
 Coeff-Com:  0.715D+00
 Coeff:     -0.568D-03-0.160D-02-0.101D-01-0.646D-02 0.113D-01 0.293D+00
 Coeff:      0.715D+00
 Gap=     0.211 Goal=   None    Shift=    0.000
 RMSDP=9.30D-09 MaxDP=2.27D-07 DE=-9.55D-12 OVMax= 9.97D-07

 SCF Done:  E(RAPFD) =  -1010.03601948     A.U. after   15 cycles
            NFock= 15  Conv=0.93D-08     -V/T= 2.0066
 KE= 1.003433690448D+03 PE=-4.040424134212D+03 EE= 1.195750017568D+03
 Leave Link  502 at Fri Oct  4 19:58:16 2024, MaxMem=  2097152000 cpu:             233.5 elap:              14.7
 (Enter /uufs/chpc.utah.edu/sys/installdir/gaussian16/C01/AVX/g16/l601.exe)
 Copying SCF densities to generalized density rwf, IOpCl= 0 IROHF=0.

 **********************************************************************

            Population analysis using the SCF Density.

 **********************************************************************

 Orbital symmetries:
       Occupied  (A) (A) (A) (A) (A) (A) (A) (A) (A) (A) (A) (A)
                 (A) (A) (A) (A) (A) (A) (A) (A) (A) (A) (A) (A)
                 (A) (A) (A) (A) (A) (A) (A) (A) (A) (A) (A) (A)
                 (A) (A) (A) (A) (A) (A) (A) (A) (A) (A) (A) (A)
                 (A)
       Virtual   (A) (A) (A) (A) (A) (A) (A) (A) (A) (A) (A) (A)
                 (A) (A) (A) (A) (A) (A) (A) (A) (A) (A) (A) (A)
                 (A) (A) (A) (A) (A) (A) (A) (A) (A) (A) (A) (A)
                 (A) (A) (A) (A) (A) (A) (A) (A) (A) (A) (A) (A)
                 (A) (A) (A) (A) (A) (A) (A) (A) (A) (A) (A) (A)
                 (A) (A) (A) (A) (A) (A) (A) (A) (A) (A) (A) (A)
                 (A) (A) (A) (A) (A) (A) (A) (A) (A) (A) (A) (A)
                 (A) (A) (A) (A) (A) (A) (A) (A) (A) (A) (A) (A)
                 (A) (A) (A) (A) (A) (A) (A) (A) (A) (A) (A) (A)
                 (A) (A) (A) (A) (A) (A) (A) (A) (A) (A) (A) (A)
                 (A) (A) (A) (A) (A) (A) (A) (A) (A) (A) (A) (A)
                 (A) (A) (A) (A) (A) (A) (A) (A) (A) (A) (A) (A)
                 (A) (A) (A)
 The electronic state is 1-A.
 Alpha  occ. eigenvalues --  -89.23261 -24.79283 -19.26178 -19.20717 -19.20687
 Alpha  occ. eigenvalues --  -14.41599 -10.31756 -10.30680 -10.28921 -10.28113
 Alpha  occ. eigenvalues --  -10.26904 -10.26416  -8.21107  -6.16076  -6.15671
 Alpha  occ. eigenvalues --   -6.15604  -1.28493  -1.12801  -1.12191  -1.04440
 Alpha  occ. eigenvalues --   -0.99541  -0.85855  -0.82964  -0.76113  -0.71626
 Alpha  occ. eigenvalues --   -0.68449  -0.64756  -0.59972  -0.57080  -0.55705
 Alpha  occ. eigenvalues --   -0.52580  -0.51395  -0.51108  -0.49891  -0.48322
 Alpha  occ. eigenvalues --   -0.46535  -0.45417  -0.44256  -0.44036  -0.43270
 Alpha  occ. eigenvalues --   -0.39176  -0.38616  -0.38401  -0.34664  -0.34576
 Alpha  occ. eigenvalues --   -0.32595  -0.32010  -0.30603  -0.27376
 Alpha virt. eigenvalues --   -0.06241  -0.04201   0.00831   0.06807   0.08207
 Alpha virt. eigenvalues --    0.09314   0.10452   0.10771   0.13236   0.13871
 Alpha virt. eigenvalues --    0.15000   0.15480   0.17676   0.17949   0.20727
 Alpha virt. eigenvalues --    0.24027   0.26978   0.29353   0.31708   0.34588
 Alpha virt. eigenvalues --    0.35222   0.38200   0.40404   0.42680   0.45364
 Alpha virt. eigenvalues --    0.50156   0.50580   0.54364   0.54898   0.55894
 Alpha virt. eigenvalues --    0.56902   0.58084   0.58744   0.59355   0.61173
 Alpha virt. eigenvalues --    0.62288   0.63782   0.69687   0.71204   0.73878
 Alpha virt. eigenvalues --    0.77354   0.79054   0.81367   0.81851   0.82302
 Alpha virt. eigenvalues --    0.83467   0.83976   0.84714   0.86415   0.87091
 Alpha virt. eigenvalues --    0.87436   0.89082   0.89929   0.92026   0.94501
 Alpha virt. eigenvalues --    0.97943   0.98324   1.00148   1.02544   1.03839
 Alpha virt. eigenvalues --    1.04668   1.06268   1.07084   1.09395   1.15049
 Alpha virt. eigenvalues --    1.16935   1.19638   1.19980   1.22843   1.24345
 Alpha virt. eigenvalues --    1.28401   1.31589   1.32386   1.33998   1.36336
 Alpha virt. eigenvalues --    1.40471   1.40919   1.42232   1.46364   1.47100
 Alpha virt. eigenvalues --    1.48305   1.50287   1.58488   1.58806   1.62870
 Alpha virt. eigenvalues --    1.69807   1.72835   1.77023   1.77272   1.78772
 Alpha virt. eigenvalues --    1.79375   1.81206   1.81814   1.83298   1.84251
 Alpha virt. eigenvalues --    1.85476   1.85731   1.86633   1.89690   1.90343
 Alpha virt. eigenvalues --    1.91624   1.98653   2.00336   2.01421   2.05477
 Alpha virt. eigenvalues --    2.07650   2.11186   2.12765   2.12863   2.15085
 Alpha virt. eigenvalues --    2.15468   2.18532   2.23785   2.24240   2.24855
 Alpha virt. eigenvalues --    2.29933   2.30566   2.31251   2.36123   2.47656
 Alpha virt. eigenvalues --    2.50430   2.52663   2.58746   2.63110   2.65505
 Alpha virt. eigenvalues --    2.65961   2.71680   2.75534   2.77048   2.81884
 Alpha virt. eigenvalues --    2.85748   2.92277   2.93770   3.14991   3.34656
 Alpha virt. eigenvalues --    3.77931   3.89100   3.95874   4.02679   4.05191
 Alpha virt. eigenvalues --    4.13309   4.20257   4.24348   4.32775   4.42062
 Alpha virt. eigenvalues --    4.58656   4.67154
          Condensed to atoms (all electrons):
               1          2          3          4          5          6
     1  F    9.147163   0.218488  -0.030548   0.000814  -0.000013  -0.000003
     2  S    0.218488  13.464723   0.198603  -0.022448   0.001299   0.000192
     3  C   -0.030548   0.198603   5.321439   0.452407  -0.037847  -0.040025
     4  C    0.000814  -0.022448   0.452407   4.948299   0.517483  -0.015537
     5  C   -0.000013   0.001299  -0.037847   0.517483   4.983999   0.535877
     6  C   -0.000003   0.000192  -0.040025  -0.015537   0.535877   4.613689
     7  O   -0.000000  -0.000000   0.000105   0.003713  -0.057851   0.279903
     8  C    0.000000  -0.000000   0.000028  -0.000165   0.004532  -0.045194
     9  C    0.000195   0.000075  -0.072542  -0.031762  -0.067095   0.398506
    10  N    0.004002  -0.021609   0.357885  -0.026871  -0.037765   0.000792
    11  O   -0.035832   0.456573  -0.057355  -0.000080   0.000047   0.000002
    12  O   -0.035729   0.453417  -0.057035   0.000401   0.000098  -0.000001
    13  H    0.000009   0.001918  -0.035763   0.361895  -0.030598   0.003906
    14  H    0.000000  -0.000034   0.005323  -0.038598   0.361094  -0.035085
    15  H    0.000000  -0.000000   0.000001   0.000002  -0.000096   0.002966
    16  H   -0.000000  -0.000000  -0.000021   0.000007   0.000101  -0.005387
    17  H   -0.000000  -0.000000  -0.000012   0.000009  -0.000049  -0.004224
    18  H    0.000003  -0.000177   0.006671   0.000335   0.002968  -0.066626
               7          8          9         10         11         12
     1  F   -0.000000   0.000000   0.000195   0.004002  -0.035832  -0.035729
     2  S   -0.000000  -0.000000   0.000075  -0.021609   0.456573   0.453417
     3  C    0.000105   0.000028  -0.072542   0.357885  -0.057355  -0.057035
     4  C    0.003713  -0.000165  -0.031762  -0.026871  -0.000080   0.000401
     5  C   -0.057851   0.004532  -0.067095  -0.037765   0.000047   0.000098
     6  C    0.279903  -0.045194   0.398506   0.000792   0.000002  -0.000001
     7  O    8.204903   0.226242  -0.051187   0.002608  -0.000000  -0.000000
     8  C    0.226242   4.989888  -0.004203   0.000005  -0.000000  -0.000000
     9  C   -0.051187  -0.004203   5.037100   0.424022  -0.000131  -0.000118
    10  N    0.002608   0.000005   0.424022   6.776356  -0.000182   0.000128
    11  O   -0.000000  -0.000000  -0.000131  -0.000182   8.163324  -0.041700
    12  O   -0.000000  -0.000000  -0.000118   0.000128  -0.041700   8.167417
    13  H   -0.000030   0.000002  -0.000007   0.003624   0.000174   0.000600
    14  H   -0.000446  -0.000126   0.005867  -0.000087   0.000001   0.000001
    15  H   -0.029149   0.386066   0.000207   0.000000   0.000000  -0.000000
    16  H   -0.033295   0.367895   0.004323  -0.000066   0.000000  -0.000000
    17  H   -0.035025   0.371343   0.003037  -0.000036  -0.000000   0.000000
    18  H   -0.003696   0.005513   0.385910  -0.048854   0.000000   0.000000
              13         14         15         16         17         18
     1  F    0.000009   0.000000   0.000000  -0.000000  -0.000000   0.000003
     2  S    0.001918  -0.000034  -0.000000  -0.000000  -0.000000  -0.000177
     3  C   -0.035763   0.005323   0.000001  -0.000021  -0.000012   0.006671
     4  C    0.361895  -0.038598   0.000002   0.000007   0.000009   0.000335
     5  C   -0.030598   0.361094  -0.000096   0.000101  -0.000049   0.002968
     6  C    0.003906  -0.035085   0.002966  -0.005387  -0.004224  -0.066626
     7  O   -0.000030  -0.000446  -0.029149  -0.033295  -0.035025  -0.003696
     8  C    0.000002  -0.000126   0.386066   0.367895   0.371343   0.005513
     9  C   -0.000007   0.005867   0.000207   0.004323   0.003037   0.385910
    10  N    0.003624  -0.000087   0.000000  -0.000066  -0.000036  -0.048854
    11  O    0.000174   0.000001   0.000000   0.000000  -0.000000   0.000000
    12  O    0.000600   0.000001  -0.000000  -0.000000   0.000000   0.000000
    13  H    0.472178  -0.004916  -0.000000   0.000000  -0.000000   0.000020
    14  H   -0.004916   0.493626  -0.000023   0.000023   0.000019  -0.000124
    15  H   -0.000000  -0.000023   0.488855  -0.028960  -0.030166  -0.000038
    16  H    0.000000   0.000023  -0.028960   0.545812  -0.040404   0.001033
    17  H   -0.000000   0.000019  -0.030166  -0.040404   0.544845   0.000861
    18  H    0.000020  -0.000124  -0.000038   0.001033   0.000861   0.517932
 Mulliken charges:
               1
     1  F   -0.268550
     2  S    1.248982
     3  C   -0.011313
     4  C   -0.149904
     5  C   -0.176185
     6  C    0.376248
     7  O   -0.506795
     8  C   -0.301826
     9  C   -0.032196
    10  N   -0.433953
    11  O   -0.484841
    12  O   -0.487479
    13  H    0.226987
    14  H    0.213485
    15  H    0.210334
    16  H    0.188938
    17  H    0.189801
    18  H    0.198267
 Sum of Mulliken charges =  -0.00000
 Mulliken charges with hydrogens summed into heavy atoms:
               1
     1  F   -0.268550
     2  S    1.248982
     3  C   -0.011313
     4  C    0.077083
     5  C    0.037300
     6  C    0.376248
     7  O   -0.506795
     8  C    0.287247
     9  C    0.166071
    10  N   -0.433953
    11  O   -0.484841
    12  O   -0.487479
 Electronic spatial extent (au):  <R**2>=           2763.6520
 Charge=              0.0000 electrons
 Dipole moment (field-independent basis, Debye):
    X=             -7.0547    Y=              0.0210    Z=             -0.0237  Tot=              7.0547
 Quadrupole moment (field-independent basis, Debye-Ang):
   XX=            -71.0504   YY=            -69.2324   ZZ=            -79.4478
   XY=              3.7395   XZ=             -0.4458   YZ=              0.0931
 Traceless Quadrupole moment (field-independent basis, Debye-Ang):
   XX=              2.1931   YY=              4.0112   ZZ=             -6.2043
   XY=              3.7395   XZ=             -0.4458   YZ=              0.0931
 Octapole moment (field-independent basis, Debye-Ang**2):
  XXX=            -74.8946  YYY=              6.3012  ZZZ=             -0.6865  XYY=             -2.6688
  XXY=            -38.2972  XXZ=              1.9253  XZZ=             -3.8260  YZZ=             -7.7704
  YYZ=              0.5286  XYZ=              0.5089
 Hexadecapole moment (field-independent basis, Debye-Ang**3):
 XXXX=          -2454.3634 YYYY=           -400.1873 ZZZZ=           -187.9133 XXXY=             54.6511
 XXXZ=             -9.6303 YYYX=            -22.1096 YYYZ=              0.6392 ZZZX=             -2.4848
 ZZZY=              0.3037 XXYY=           -506.3594 XXZZ=           -519.3655 YYZZ=           -106.5924
 XXYZ=              1.5288 YYXZ=              0.7375 ZZXY=            -11.9057
 N-N= 8.312044067120D+02 E-N=-4.040424129941D+03  KE= 1.003433690448D+03
 No NMR shielding tensors so no spin-rotation constants.
 Leave Link  601 at Fri Oct  4 19:58:16 2024, MaxMem=  2097152000 cpu:               2.1 elap:               0.2
 (Enter /uufs/chpc.utah.edu/sys/installdir/gaussian16/C01/AVX/g16/l701.exe)
 ... and contract with generalized density number  0.
 Compute integral first derivatives.
 R6APFD:  NTU= -4 IXU= 1 FactS= 1.050
 R6Disp: Adding Petersson-Frisch dispersion energy 1st derivatives to the gradient.
 Leave Link  701 at Fri Oct  4 19:58:16 2024, MaxMem=  2097152000 cpu:               2.3 elap:               0.2
 (Enter /uufs/chpc.utah.edu/sys/installdir/gaussian16/C01/AVX/g16/l702.exe)
 L702 exits ... SP integral derivatives will be done elsewhere.
 Leave Link  702 at Fri Oct  4 19:58:16 2024, MaxMem=  2097152000 cpu:               0.7 elap:               0.1
 (Enter /uufs/chpc.utah.edu/sys/installdir/gaussian16/C01/AVX/g16/l703.exe)
 Integral derivatives from FoFJK, PRISM(SPDF).
 Compute integral first derivatives, UseDBF=F ICtDFT=           0.
 Calling FoFJK, ICntrl=      2127 FMM=F ISym2X=0 I1Cent= 0 IOpClX= 0 NMat=1 NMatS=1 NMatT=0.
 FoFJK:  IHMeth= 1 ICntrl=    2127 DoSepK=F KAlg= 0 I1Cent=           0 FoldK=F
 IRaf=         0 NMat=       1 IRICut=       1 DoRegI=T DoRafI=F ISym2E= 0 IDoP0=0 IntGTp=1.
 FoFCou: FMM=F IPFlag=           0 FMFlag=      100000 FMFlg1=         800
         NFxFlg=           0 DoJE=F BraDBF=F KetDBF=F FulRan=T
         wScrn=  0.000000 ICntrl=      2127 IOpCl=  0 I1Cent=           0 NGrid=           0
         NMat0=    1 NMatS0=      1 NMatT0=    0 NMatD0=    1 NMtDS0=    0 NMtDT0=    0
 Symmetry not used in FoFCou.
 Leave Link  703 at Fri Oct  4 19:58:20 2024, MaxMem=  2097152000 cpu:              57.8 elap:               3.6
 (Enter /uufs/chpc.utah.edu/sys/installdir/gaussian16/C01/AVX/g16/l716.exe)
 Dipole        =-2.77551875D+00 8.26987330D-03-9.34101977D-03
 ***** Axes restored to original set *****
 -------------------------------------------------------------------
 Center     Atomic                   Forces (Hartrees/Bohr)
 Number     Number              X              Y              Z
 -------------------------------------------------------------------
      1        9           0.007562548    0.009584712   -0.005530987
      2       16          -0.024835146   -0.007175401    0.019901037
      3        6           0.041242732   -0.003141576   -0.033264157
      4        6          -0.000625902    0.006068905    0.000114640
      5        6          -0.006653593   -0.005671939    0.005406636
      6        6          -0.006348479    0.015374260    0.004549788
      7        8           0.002740041   -0.012463767   -0.003553060
      8        6          -0.000267603    0.003882775    0.000816010
      9        6           0.005843107   -0.024725781   -0.004494963
     10        7          -0.022595370    0.022509346    0.017542850
     11        8           0.005099926    0.000223079    0.002368114
     12        8          -0.001277492    0.000544182   -0.005516966
     13        1          -0.000322054   -0.000248130    0.000492547
     14        1           0.001705643    0.000204723   -0.001339882
     15        1          -0.003691545   -0.001405962    0.004092353
     16        1           0.000914316   -0.002724988    0.000162173
     17        1           0.001081808   -0.002801657   -0.001507308
     18        1           0.000427061    0.001967221   -0.000238824
 -------------------------------------------------------------------
 Cartesian Forces:  Max     0.041242732 RMS     0.011228924
 Leave Link  716 at Fri Oct  4 19:58:20 2024, MaxMem=  2097152000 cpu:               0.7 elap:               0.1
 (Enter /uufs/chpc.utah.edu/sys/installdir/gaussian16/C01/AVX/g16/l103.exe)

 GradGradGradGradGradGradGradGradGradGradGradGradGradGradGradGradGradGrad
 Berny optimization.
 FormGI is forming the generalized inverse of G from B-inverse, IUseBI=4.
 Internal  Forces:  Max     0.032612117 RMS     0.006657612
 Search for a local minimum.
 Step number   1 out of a maximum of   88
 All quantities printed in internal units (Hartrees-Bohrs-Radians)
 RMS Force = .66576D-02 SwitMx=.10000D-02 MixMth= 1
 Mixed Optimization -- RFO/linear search
 Second derivative matrix not updated -- first step.
 ITU=  0
     Eigenvalues ---    0.00680   0.01384   0.01586   0.02153   0.02162
     Eigenvalues ---    0.02165   0.02168   0.02212   0.02229   0.02232
     Eigenvalues ---    0.02259   0.09994   0.10534   0.11265   0.12572
     Eigenvalues ---    0.15999   0.15999   0.16000   0.16000   0.16000
     Eigenvalues ---    0.16000   0.22329   0.23401   0.24566   0.24997
     Eigenvalues ---    0.25000   0.25000   0.25000   0.25000   0.25000
     Eigenvalues ---    0.28049   0.34215   0.34271   0.34331   0.35077
     Eigenvalues ---    0.35361   0.35449   0.41973   0.43163   0.44104
     Eigenvalues ---    0.46663   0.47650   0.51715   0.52064   0.52932
     Eigenvalues ---    0.53837   0.95414   0.95519
 RFO step:  Lambda=-1.07088608D-02 EMin= 6.79606411D-03
 Linear search not attempted -- first point.
 Iteration  1 RMS(Cart)=  0.05183609 RMS(Int)=  0.00222529
 Iteration  2 RMS(Cart)=  0.00241407 RMS(Int)=  0.00024603
 Iteration  3 RMS(Cart)=  0.00000488 RMS(Int)=  0.00024602
 Iteration  4 RMS(Cart)=  0.00000000 RMS(Int)=  0.00024602
 ITry= 1 IFail=0 DXMaxC= 3.30D-01 DCOld= 1.00D+10 DXMaxT= 3.00D-01 DXLimC= 3.00D+00 Rises=F
 Variable       Old X    -DE/DX   Delta X   Delta X   Delta X     New X
                                 (Linear)    (Quad)   (Total)
    R1        2.99880   0.00221   0.00000   0.00402   0.00402   3.00282
    R2        3.35732   0.00220   0.00000   0.00754   0.00754   3.36486
    R3        2.74189  -0.00558   0.00000  -0.00578  -0.00578   2.73611
    R4        2.74233  -0.00565   0.00000  -0.00586  -0.00586   2.73648
    R5        2.61810   0.00393   0.00000   0.00703   0.00706   2.62516
    R6        2.56846  -0.02801   0.00000  -0.05375  -0.05371   2.51475
    R7        2.63147  -0.00861   0.00000  -0.01650  -0.01651   2.61496
    R8        2.04953   0.00060   0.00000   0.00164   0.00164   2.05116
    R9        2.63978   0.00018   0.00000   0.00276   0.00272   2.64250
   R10        2.05551  -0.00123   0.00000  -0.00340  -0.00340   2.05211
   R11        2.57838  -0.01481   0.00000  -0.02787  -0.02787   2.55051
   R12        2.63169   0.00577   0.00000   0.01283   0.01281   2.64450
   R13        2.68957  -0.00438   0.00000  -0.01017  -0.01017   2.67940
   R14        2.06774  -0.00207   0.00000  -0.00584  -0.00584   2.06191
   R15        2.06970   0.00089   0.00000   0.00251   0.00251   2.07220
   R16        2.06876   0.00118   0.00000   0.00333   0.00333   2.07209
   R17        2.56193  -0.02025   0.00000  -0.03812  -0.03810   2.52383
   R18        2.05092   0.00067   0.00000   0.00183   0.00183   2.05276
    A1        1.87513  -0.03261   0.00000  -0.13511  -0.13537   1.73976
    A2        1.84415   0.00821   0.00000   0.01920   0.01884   1.86299
    A3        1.84362   0.00849   0.00000   0.02108   0.02079   1.86441
    A4        1.88088   0.00512   0.00000   0.02509   0.02412   1.90499
    A5        1.88272   0.00521   0.00000   0.02572   0.02477   1.90749
    A6        2.12435  -0.00015   0.00000   0.01774   0.01639   2.14073
    A7        2.09407  -0.01059   0.00000  -0.03833  -0.03838   2.05569
    A8        2.00476   0.00759   0.00000   0.03143   0.03138   2.03614
    A9        2.18416   0.00301   0.00000   0.00710   0.00715   2.19131
   A10        2.04466  -0.00145   0.00000  -0.00356  -0.00357   2.04109
   A11        2.12244   0.00059   0.00000   0.00100   0.00098   2.12342
   A12        2.11603   0.00087   0.00000   0.00267   0.00264   2.11867
   A13        2.09748  -0.00588   0.00000  -0.01599  -0.01606   2.08142
   A14        2.09471   0.00479   0.00000   0.01886   0.01888   2.11359
   A15        2.09095   0.00109   0.00000  -0.00279  -0.00277   2.08818
   A16        2.01236   0.00452   0.00000   0.01371   0.01373   2.02609
   A17        2.05433   0.00169   0.00000   0.01381   0.01372   2.06805
   A18        2.21648  -0.00621   0.00000  -0.02747  -0.02745   2.18903
   A19        2.03766   0.00140   0.00000   0.00536   0.00536   2.04302
   A20        1.88173  -0.00719   0.00000  -0.04059  -0.04058   1.84115
   A21        1.94584  -0.00003   0.00000  -0.00114  -0.00115   1.94469
   A22        1.93183   0.00207   0.00000   0.01149   0.01154   1.94336
   A23        1.87770   0.00409   0.00000   0.02509   0.02504   1.90274
   A24        1.88448   0.00335   0.00000   0.02151   0.02159   1.90607
   A25        1.93943  -0.00227   0.00000  -0.01599  -0.01597   1.92346
   A26        2.16739  -0.00517   0.00000  -0.02229  -0.02231   2.14508
   A27        2.13251   0.00063   0.00000  -0.00032  -0.00033   2.13218
   A28        1.98327   0.00455   0.00000   0.02265   0.02264   2.00592
   A29        2.01811   0.00781   0.00000   0.02114   0.02123   2.03934
    D1       -3.11935   0.00022   0.00000   0.01471   0.01475  -3.10461
    D2        0.04243  -0.00007   0.00000   0.00462   0.00465   0.04708
    D3        1.18394   0.00411   0.00000   0.04605   0.04638   1.23032
    D4       -1.93746   0.00382   0.00000   0.03596   0.03628  -1.90118
    D5       -1.13919  -0.00335   0.00000  -0.01442  -0.01478  -1.15397
    D6        2.02259  -0.00364   0.00000  -0.02451  -0.02488   1.99771
    D7       -3.10337  -0.00066   0.00000  -0.01946  -0.01934  -3.12270
    D8        0.02820  -0.00025   0.00000  -0.00789  -0.00777   0.02043
    D9        0.01582  -0.00031   0.00000  -0.00805  -0.00802   0.00780
   D10       -3.13580   0.00010   0.00000   0.00352   0.00355  -3.13225
   D11        3.10652   0.00048   0.00000   0.01885   0.01910   3.12562
   D12       -0.01368   0.00034   0.00000   0.00874   0.00868  -0.00500
   D13        0.00061   0.00002   0.00000  -0.00021  -0.00014   0.00047
   D14        3.13199   0.00033   0.00000   0.00930   0.00940   3.14138
   D15       -3.13100  -0.00038   0.00000  -0.01172  -0.01166   3.14053
   D16        0.00038  -0.00007   0.00000  -0.00221  -0.00213  -0.00175
   D17        3.11927   0.00058   0.00000   0.01724   0.01732   3.13659
   D18       -0.01706   0.00027   0.00000   0.00669   0.00660  -0.01046
   D19       -0.01213   0.00025   0.00000   0.00762   0.00780  -0.00433
   D20        3.13472  -0.00006   0.00000  -0.00293  -0.00292   3.13180
   D21       -3.09377  -0.00018   0.00000  -0.00581  -0.00574  -3.09951
   D22        0.04199   0.00019   0.00000   0.00605   0.00598   0.04796
   D23        0.01994  -0.00017   0.00000  -0.00604  -0.00609   0.01386
   D24       -3.12656   0.00012   0.00000   0.00373   0.00366  -3.12290
   D25       -3.11569  -0.00057   0.00000  -0.01815  -0.01806  -3.13375
   D26        0.02099  -0.00027   0.00000  -0.00838  -0.00831   0.01268
   D27        3.04790   0.00040   0.00000   0.02067   0.02077   3.06867
   D28        0.99059  -0.00013   0.00000   0.01576   0.01572   1.00631
   D29       -1.17772   0.00133   0.00000   0.02889   0.02884  -1.14888
   D30       -0.00499  -0.00008   0.00000  -0.00126  -0.00120  -0.00619
   D31        3.14114  -0.00034   0.00000  -0.01024  -0.01025   3.13089
         Item               Value     Threshold  Converged?
 Maximum Force            0.032612     0.000450     NO 
 RMS     Force            0.006658     0.000300     NO 
 Maximum Displacement     0.330171     0.001800     NO 
 RMS     Displacement     0.052919     0.001200     NO 
 Predicted change in Energy=-5.599476D-03
 Lowest energy point so far.  Saving SCF results.
 GradGradGradGradGradGradGradGradGradGradGradGradGradGradGradGradGradGrad

 Leave Link  103 at Fri Oct  4 19:58:20 2024, MaxMem=  2097152000 cpu:               0.8 elap:               0.1
 (Enter /uufs/chpc.utah.edu/sys/installdir/gaussian16/C01/AVX/g16/l202.exe)
                          Input orientation:                          
 ---------------------------------------------------------------------
 Center     Atomic      Atomic             Coordinates (Angstroms)
 Number     Number       Type             X           Y           Z
 ---------------------------------------------------------------------
      1          9           0        3.898320   -0.591891   -0.755093
      2         16           0        2.782181    0.163681    0.086539
      3          6           0        3.237100    1.850186   -0.258876
      4          6           0        2.501226    2.857512    0.352351
      5          6           0        2.854732    4.161644    0.053841
      6          6           0        3.912329    4.397804   -0.829963
      7          8           0        4.198687    5.692777   -1.080278
      8          6           0        5.232840    5.955807   -2.013937
      9          6           0        4.586376    3.298368   -1.373328
     10          7           0        4.254177    2.034653   -1.096978
     11          8           0        1.513617   -0.125642   -0.548607
     12          8           0        3.041543   -0.125671    1.481510
     13          1           0        1.686791    2.634480    1.034340
     14          1           0        2.324604    5.001171    0.493609
     15          1           0        5.253160    7.040719   -2.128329
     16          1           0        5.019761    5.497780   -2.987210
     17          1           0        6.205131    5.614251   -1.639355
     18          1           0        5.426724    3.412950   -2.052058
 ---------------------------------------------------------------------
                    Distance matrix (angstroms):
                    1          2          3          4          5
     1  F    0.000000
     2  S    1.589025   0.000000
     3  C    2.578213   1.780607   0.000000
     4  C    3.882870   2.721455   1.389177   0.000000
     5  C    4.933512   3.998755   2.363649   1.383776   0.000000
     6  C    4.990276   4.477165   2.696744   2.400329   1.398353
     7  O    6.300239   5.825706   4.045350   3.601740   2.331696
     8  C    6.799852   6.630721   4.890740   4.760301   3.626310
     9  C    3.998719   3.900333   2.271515   2.742293   2.404297
    10  N    2.672499   2.658575   1.330747   2.418778   2.794087
    11  O    2.438612   1.447885   2.637846   3.268991   4.532367
    12  O    2.440046   1.448081   2.640302   3.235169   4.522633
    13  H    4.301441   2.864097   2.165867   1.085429   2.158170
    14  H    5.942910   4.876105   3.365649   2.155557   1.085927
    15  H    7.872617   7.635773   5.873754   5.588035   4.336288
    16  H    6.582102   6.550368   4.891486   4.946383   3.964921
    17  H    6.679782   6.663633   4.988297   5.028460   4.025189
    18  H    4.478492   4.703717   3.232984   3.827301   3.407417
                    6          7          8          9         10
     6  C    0.000000
     7  O    1.349672   0.000000
     8  C    2.360703   1.417877   0.000000
     9  C    1.399408   2.443230   2.808964   0.000000
    10  N    2.402631   3.658583   4.144158   1.335553   0.000000
    11  O    5.127820   6.430106   7.277625   4.673955   3.532457
    12  O    5.153930   6.461894   7.348762   4.718119   3.575763
    13  H    3.396757   4.487139   5.735649   3.826905   3.390247
    14  H    2.153315   2.543153   3.956887   3.391254   3.879878
    15  H    3.235519   2.006806   1.091115   3.875541   5.207912
    16  H    2.662718   2.085324   1.096563   2.762219   4.018998
    17  H    2.718786   2.084358   1.096504   2.838036   4.112653
    18  H    2.181019   2.765870   2.550522   1.086273   2.046154
                   11         12         13         14         15
    11  O    0.000000
    12  O    2.540853   0.000000
    13  H    3.186531   3.107047   0.000000
    14  H    5.294160   5.270148   2.510065   0.000000
    15  H    8.236287   8.323421   6.491256   4.428403   0.000000
    16  H    7.061353   7.450235   5.956513   4.430191   1.781238
    17  H    7.493090   7.259118   6.036810   4.470335   1.783299
    18  H    5.485836   5.540490   4.911106   4.315787   3.632719
                   16         17         18
    16  H    0.000000
    17  H    1.798715   0.000000
    18  H    2.320914   2.371068   0.000000
 Stoichiometry    C6H6FNO3S
 Framework group  C1[X(C6H6FNO3S)]
 Deg. of freedom    48
 Full point group                 C1      NOp   1
 RotChk:  IX=0 Diff= 1.14D-02
 Largest Abelian subgroup         C1      NOp   1
 Largest concise Abelian subgroup C1      NOp   1
                         Standard orientation:                         
 ---------------------------------------------------------------------
 Center     Atomic      Atomic             Coordinates (Angstroms)
 Number     Number       Type             X           Y           Z
 ---------------------------------------------------------------------
      1          9           0        2.412116   -1.569143   -0.064106
      2         16           0        2.253073    0.009978    0.013886
      3          6           0        0.477023    0.133864   -0.015470
      4          6           0       -0.083638    1.404848   -0.006917
      5          6           0       -1.465333    1.480717   -0.006745
      6          6           0       -2.214594    0.300065   -0.014431
      7          8           0       -3.556070    0.448427   -0.007721
      8          6           0       -4.335616   -0.735047    0.037811
      9          6           0       -1.533853   -0.922438   -0.034927
     10          7           0       -0.201240   -1.010940   -0.031917
     11          8           0        2.735836    0.413883    1.317792
     12          8           0        2.790521    0.546715   -1.218997
     13          1           0        0.531687    2.299000   -0.002072
     14          1           0       -1.974420    2.439896   -0.000118
     15          1           0       -5.371090   -0.399246    0.112391
     16          1           0       -4.092237   -1.341312    0.918527
     17          1           0       -4.213775   -1.328652   -0.876033
     18          1           0       -2.055936   -1.874718   -0.059022
 ---------------------------------------------------------------------
 Rotational constants (GHZ):           2.3900878           0.4264243           0.3917787
 Leave Link  202 at Fri Oct  4 19:58:20 2024, MaxMem=  2097152000 cpu:               0.1 elap:               0.0
 (Enter /uufs/chpc.utah.edu/sys/installdir/gaussian16/C01/AVX/g16/l301.exe)
 Standard basis: 6-31G(d) (6D, 7F)
 Ernie: Thresh=  0.10000D-02 Tol=  0.10000D-05 Strict=F.
 There are   196 symmetry adapted cartesian basis functions of A   symmetry.
 There are   196 symmetry adapted basis functions of A   symmetry.
   196 basis functions,   384 primitive gaussians,   196 cartesian basis functions
    49 alpha electrons       49 beta electrons
       nuclear repulsion energy       836.0889412754 Hartrees.
 IExCor= 3731 DFT=T Ex+Corr=APFD ExCW=0 ScaHFX=  0.229450
 ScaDFX=  1.000000  1.000000  1.000000  1.000000 ScalE2=  1.000000  1.000000
 IRadAn=      5 IRanWt=     -1 IRanGd=            0 ICorTp=0 IEmpDi=211
 NAtoms=   18 NActive=   18 NUniq=   18 SFac= 1.00D+00 NAtFMM=   60 NAOKFM=F Big=F
 Integral buffers will be    131072 words long.
 Raffenetti 2 integral format.
 Two-electron integral symmetry is turned on.
 R6APFD:  NTU= -4 IXU= 1 FactS= 1.050
 R6Disp:  Petersson-Frisch Dispersion energy=       -0.0144437205 Hartrees.
 Nuclear repulsion after empirical dispersion term =      836.0744975549 Hartrees.
 Leave Link  301 at Fri Oct  4 19:58:20 2024, MaxMem=  2097152000 cpu:               1.0 elap:               0.1
 (Enter /uufs/chpc.utah.edu/sys/installdir/gaussian16/C01/AVX/g16/l302.exe)
 NPDir=0 NMtPBC=     1 NCelOv=     1 NCel=       1 NClECP=     1 NCelD=      1
         NCelK=      1 NCelE2=     1 NClLst=     1 CellRange=     0.0.
 One-electron integrals computed using PRISM.
 One-electron integral symmetry used in STVInt
 NBasis=   196 RedAO= T EigKep=  7.46D-04  NBF=   196
 NBsUse=   196 1.00D-06 EigRej= -1.00D+00 NBFU=   196
 Precomputing XC quadrature grid using
 IXCGrd= 4 IRadAn=           5 IRanWt=          -1 IRanGd=           0 AccXCQ= 0.00D+00.
 Generated NRdTot=       0 NPtTot=           0 NUsed=           0 NTot=          32
 NSgBfM=   195   195   195   195   195 MxSgAt=    18 MxSgA2=    18.
 Leave Link  302 at Fri Oct  4 19:58:20 2024, MaxMem=  2097152000 cpu:               3.4 elap:               0.2
 (Enter /uufs/chpc.utah.edu/sys/installdir/gaussian16/C01/AVX/g16/l303.exe)
 DipDrv:  MaxL=1.
 Leave Link  303 at Fri Oct  4 19:58:20 2024, MaxMem=  2097152000 cpu:               0.8 elap:               0.1
 (Enter /uufs/chpc.utah.edu/sys/installdir/gaussian16/C01/AVX/g16/l401.exe)
 Initial guess from the checkpoint file:  "ID-4008.chk"
 B after Tr=     0.000000    0.000000    0.000000
         Rot=    0.999988   -0.000630   -0.000681    0.004711 Ang=  -0.55 deg.
 Guess basis will be translated and rotated to current coordinates.
 JPrj=2 DoOrth=T DoCkMO=T.
 Generating alternative initial guess.
 ExpMin= 1.17D-01 ExpMax= 2.19D+04 ExpMxC= 3.30D+03 IAcc=3 IRadAn=         5 AccDes= 0.00D+00
 Harris functional with IExCor= 3731 and IRadAn=       5 diagonalized for initial guess.
 HarFok:  IExCor= 3731 AccDes= 0.00D+00 IRadAn=         5 IDoV= 1 UseB2=F ITyADJ=14
 ICtDFT=  3500011 ScaDFX=  1.000000  1.000000  1.000000  1.000000
 FoFCou: FMM=F IPFlag=           0 FMFlag=      100000 FMFlg1=           0
         NFxFlg=           0 DoJE=T BraDBF=F KetDBF=T FulRan=T
         wScrn=  0.000000 ICntrl=       500 IOpCl=  0 I1Cent=   200000004 NGrid=           0
         NMat0=    1 NMatS0=      1 NMatT0=    0 NMatD0=    1 NMtDS0=    0 NMtDT0=    0
 Petite list used in FoFCou.
 Harris En= -987.465934458296    
 Leave Link  401 at Fri Oct  4 19:58:21 2024, MaxMem=  2097152000 cpu:              12.2 elap:               0.8
 (Enter /uufs/chpc.utah.edu/sys/installdir/gaussian16/C01/AVX/g16/l502.exe)
 Integral symmetry usage will be decided dynamically.
 Closed shell SCF:
 Using DIIS extrapolation, IDIIS=  1040.
 NGot=  2097152000 LenX=  2097069461 LenY=  2097030604
 Requested convergence on RMS density matrix=1.00D-08 within 128 cycles.
 Requested convergence on MAX density matrix=1.00D-06.
 Requested convergence on             energy=1.00D-06.
 No special actions if energy rises.
 Fock matrices will be formed incrementally for  20 cycles.
 Integral accuracy reduced to 1.0D-05 until final iterations.

 Cycle   1  Pass 0  IDiag  1:
 FoFJK:  IHMeth= 1 ICntrl=       0 DoSepK=F KAlg= 0 I1Cent=           0 FoldK=F
 IRaf= 870000000 NMat=       1 IRICut=       1 DoRegI=T DoRafI=F ISym2E= 0 IDoP0=0 IntGTp=1.
 FoFCou: FMM=F IPFlag=           0 FMFlag=      100000 FMFlg1=           0
         NFxFlg=           0 DoJE=F BraDBF=F KetDBF=F FulRan=T
         wScrn=  0.000000 ICntrl=         0 IOpCl=  0 I1Cent=           0 NGrid=           0
         NMat0=    1 NMatS0=      1 NMatT0=    0 NMatD0=    1 NMtDS0=    0 NMtDT0=    0
 Symmetry not used in FoFCou.
 E= -1010.03283756022    
 DIIS: error= 3.69D-03 at cycle   1 NSaved=   1.
 NSaved= 1 IEnMin= 1 EnMin= -1010.03283756022     IErMin= 1 ErrMin= 3.69D-03
 ErrMax= 3.69D-03  0.00D+00 EMaxC= 1.00D-01 BMatC= 4.94D-03 BMatP= 4.94D-03
 IDIUse=3 WtCom= 9.63D-01 WtEn= 3.69D-02
 Coeff-Com:  0.100D+01
 Coeff-En:   0.100D+01
 Coeff:      0.100D+01
 Gap=     1.664 Goal=   None    Shift=    0.000
 GapD=    1.664 DampG=2.000 DampE=1.000 DampFc=2.0000 IDamp=-1.
 RMSDP=9.42D-04 MaxDP=2.70D-02              OVMax= 2.73D-02

 Cycle   2  Pass 0  IDiag  1:
 RMSU=  9.41D-04    CP:  9.99D-01
 E= -1010.04162427181     Delta-E=       -0.008786711587 Rises=F Damp=F
 DIIS: error= 1.34D-03 at cycle   2 NSaved=   2.
 NSaved= 2 IEnMin= 2 EnMin= -1010.04162427181     IErMin= 2 ErrMin= 1.34D-03
 ErrMax= 1.34D-03  0.00D+00 EMaxC= 1.00D-01 BMatC= 5.02D-04 BMatP= 4.94D-03
 IDIUse=3 WtCom= 9.87D-01 WtEn= 1.34D-02
 Coeff-Com:  0.781D-01 0.922D+00
 Coeff-En:   0.000D+00 0.100D+01
 Coeff:      0.770D-01 0.923D+00
 Gap=     0.215 Goal=   None    Shift=    0.000
 RMSDP=2.36D-04 MaxDP=7.63D-03 DE=-8.79D-03 OVMax= 1.05D-02

 Cycle   3  Pass 0  IDiag  1:
 RMSU=  2.35D-04    CP:  9.99D-01  1.01D+00
 E= -1010.04129875890     Delta-E=        0.000325512903 Rises=F Damp=F
 DIIS: error= 2.20D-03 at cycle   3 NSaved=   3.
 NSaved= 3 IEnMin= 2 EnMin= -1010.04162427181     IErMin= 2 ErrMin= 1.34D-03
 ErrMax= 2.20D-03  0.00D+00 EMaxC= 1.00D-01 BMatC= 1.06D-03 BMatP= 5.02D-04
 IDIUse=3 WtCom= 1.76D-01 WtEn= 8.24D-01
 Coeff-Com: -0.454D-01 0.618D+00 0.427D+00
 Coeff-En:   0.000D+00 0.627D+00 0.373D+00
 Coeff:     -0.797D-02 0.626D+00 0.382D+00
 Gap=     0.215 Goal=   None    Shift=    0.000
 RMSDP=1.35D-04 MaxDP=4.80D-03 DE= 3.26D-04 OVMax= 6.48D-03

 Cycle   4  Pass 0  IDiag  1:
 RMSU=  4.69D-05    CP:  9.99D-01  1.05D+00  4.85D-01
 E= -1010.04204811164     Delta-E=       -0.000749352732 Rises=F Damp=F
 DIIS: error= 1.56D-04 at cycle   4 NSaved=   4.
 NSaved= 4 IEnMin= 4 EnMin= -1010.04204811164     IErMin= 4 ErrMin= 1.56D-04
 ErrMax= 1.56D-04  0.00D+00 EMaxC= 1.00D-01 BMatC= 7.74D-06 BMatP= 5.02D-04
 IDIUse=3 WtCom= 9.98D-01 WtEn= 1.56D-03
 Coeff-Com: -0.226D-01 0.208D+00 0.135D+00 0.680D+00
 Coeff-En:   0.000D+00 0.000D+00 0.000D+00 0.100D+01
 Coeff:     -0.226D-01 0.208D+00 0.135D+00 0.680D+00
 Gap=     0.215 Goal=   None    Shift=    0.000
 RMSDP=2.14D-05 MaxDP=9.20D-04 DE=-7.49D-04 OVMax= 6.97D-04

 Cycle   5  Pass 0  IDiag  1:
 RMSU=  1.92D-05    CP:  9.99D-01  1.06D+00  4.76D-01  8.53D-01
 E= -1010.04205252850     Delta-E=       -0.000004416867 Rises=F Damp=F
 DIIS: error= 9.27D-05 at cycle   5 NSaved=   5.
 NSaved= 5 IEnMin= 5 EnMin= -1010.04205252850     IErMin= 5 ErrMin= 9.27D-05
 ErrMax= 9.27D-05  0.00D+00 EMaxC= 1.00D-01 BMatC= 3.17D-06 BMatP= 7.74D-06
 IDIUse=1 WtCom= 1.00D+00 WtEn= 0.00D+00
 Coeff-Com: -0.827D-02 0.579D-01 0.360D-01 0.409D+00 0.505D+00
 Coeff:     -0.827D-02 0.579D-01 0.360D-01 0.409D+00 0.505D+00
 Gap=     0.215 Goal=   None    Shift=    0.000
 RMSDP=1.08D-05 MaxDP=3.57D-04 DE=-4.42D-06 OVMax= 4.78D-04

 Cycle   6  Pass 0  IDiag  1:
 RMSU=  7.74D-06    CP:  9.99D-01  1.06D+00  4.74D-01  8.91D-01  6.29D-01
 E= -1010.04205491245     Delta-E=       -0.000002383946 Rises=F Damp=F
 DIIS: error= 3.76D-05 at cycle   6 NSaved=   6.
 NSaved= 6 IEnMin= 6 EnMin= -1010.04205491245     IErMin= 6 ErrMin= 3.76D-05
 ErrMax= 3.76D-05  0.00D+00 EMaxC= 1.00D-01 BMatC= 2.49D-07 BMatP= 3.17D-06
 IDIUse=1 WtCom= 1.00D+00 WtEn= 0.00D+00
 Coeff-Com: -0.135D-02 0.327D-02 0.227D-02 0.120D+00 0.262D+00 0.614D+00
 Coeff:     -0.135D-02 0.327D-02 0.227D-02 0.120D+00 0.262D+00 0.614D+00
 Gap=     0.215 Goal=   None    Shift=    0.000
 RMSDP=3.49D-06 MaxDP=8.87D-05 DE=-2.38D-06 OVMax= 2.18D-04

 Initial convergence to 1.0D-05 achieved.  Increase integral accuracy.
 Cycle   7  Pass 1  IDiag  1:
 E= -1010.04206261574     Delta-E=       -0.000007703288 Rises=F Damp=F
 DIIS: error= 1.92D-05 at cycle   1 NSaved=   1.
 NSaved= 1 IEnMin= 1 EnMin= -1010.04206261574     IErMin= 1 ErrMin= 1.92D-05
 ErrMax= 1.92D-05  0.00D+00 EMaxC= 1.00D-01 BMatC= 9.27D-08 BMatP= 9.27D-08
 IDIUse=1 WtCom= 1.00D+00 WtEn= 0.00D+00
 Coeff-Com:  0.100D+01
 Coeff:      0.100D+01
 Gap=     0.215 Goal=   None    Shift=    0.000
 RMSDP=3.49D-06 MaxDP=8.87D-05 DE=-7.70D-06 OVMax= 2.35D-04

 Cycle   8  Pass 1  IDiag  1:
 RMSU=  6.78D-06    CP:  1.00D+00
 E= -1010.04206250372     Delta-E=        0.000000112022 Rises=F Damp=F
 DIIS: error= 3.56D-05 at cycle   2 NSaved=   2.
 NSaved= 2 IEnMin= 1 EnMin= -1010.04206261574     IErMin= 1 ErrMin= 1.92D-05
 ErrMax= 3.56D-05  0.00D+00 EMaxC= 1.00D-01 BMatC= 1.91D-07 BMatP= 9.27D-08
 IDIUse=1 WtCom= 1.00D+00 WtEn= 0.00D+00
 Coeff-Com:  0.601D+00 0.399D+00
 Coeff:      0.601D+00 0.399D+00
 Gap=     0.215 Goal=   None    Shift=    0.000
 RMSDP=2.59D-06 MaxDP=6.46D-05 DE= 1.12D-07 OVMax= 1.73D-04

 Cycle   9  Pass 1  IDiag  1:
 RMSU=  2.30D-06    CP:  1.00D+00  8.25D-01
 E= -1010.04206267990     Delta-E=       -0.000000176182 Rises=F Damp=F
 DIIS: error= 7.20D-06 at cycle   3 NSaved=   3.
 NSaved= 3 IEnMin= 3 EnMin= -1010.04206267990     IErMin= 3 ErrMin= 7.20D-06
 ErrMax= 7.20D-06  0.00D+00 EMaxC= 1.00D-01 BMatC= 9.58D-09 BMatP= 9.27D-08
 IDIUse=1 WtCom= 1.00D+00 WtEn= 0.00D+00
 Coeff-Com:  0.996D-01 0.193D+00 0.708D+00
 Coeff:      0.996D-01 0.193D+00 0.708D+00
 Gap=     0.215 Goal=   None    Shift=    0.000
 RMSDP=6.71D-07 MaxDP=1.90D-05 DE=-1.76D-07 OVMax= 3.07D-05

 Cycle  10  Pass 1  IDiag  1:
 RMSU=  4.56D-07    CP:  1.00D+00  8.60D-01  8.14D-01
 E= -1010.04206268643     Delta-E=       -0.000000006533 Rises=F Damp=F
 DIIS: error= 3.34D-06 at cycle   4 NSaved=   4.
 NSaved= 4 IEnMin= 4 EnMin= -1010.04206268643     IErMin= 4 ErrMin= 3.34D-06
 ErrMax= 3.34D-06  0.00D+00 EMaxC= 1.00D-01 BMatC= 3.08D-09 BMatP= 9.58D-09
 IDIUse=1 WtCom= 1.00D+00 WtEn= 0.00D+00
 Coeff-Com: -0.689D-03 0.843D-01 0.464D+00 0.453D+00
 Coeff:     -0.689D-03 0.843D-01 0.464D+00 0.453D+00
 Gap=     0.215 Goal=   None    Shift=    0.000
 RMSDP=2.54D-07 MaxDP=1.01D-05 DE=-6.53D-09 OVMax= 1.18D-05

 Cycle  11  Pass 1  IDiag  1:
 RMSU=  7.94D-08    CP:  1.00D+00  8.63D-01  8.35D-01  4.87D-01
 E= -1010.04206268877     Delta-E=       -0.000000002338 Rises=F Damp=F
 DIIS: error= 4.16D-07 at cycle   5 NSaved=   5.
 NSaved= 5 IEnMin= 5 EnMin= -1010.04206268877     IErMin= 5 ErrMin= 4.16D-07
 ErrMax= 4.16D-07  0.00D+00 EMaxC= 1.00D-01 BMatC= 6.59D-11 BMatP= 3.08D-09
 IDIUse=1 WtCom= 1.00D+00 WtEn= 0.00D+00
 Coeff-Com: -0.259D-02 0.442D-01 0.253D+00 0.260D+00 0.445D+00
 Coeff:     -0.259D-02 0.442D-01 0.253D+00 0.260D+00 0.445D+00
 Gap=     0.215 Goal=   None    Shift=    0.000
 RMSDP=4.38D-08 MaxDP=1.38D-06 DE=-2.34D-09 OVMax= 1.75D-06

 Cycle  12  Pass 1  IDiag  1:
 RMSU=  3.00D-08    CP:  1.00D+00  8.63D-01  8.39D-01  4.94D-01  6.15D-01
 E= -1010.04206268881     Delta-E=       -0.000000000046 Rises=F Damp=F
 DIIS: error= 1.07D-07 at cycle   6 NSaved=   6.
 NSaved= 6 IEnMin= 6 EnMin= -1010.04206268881     IErMin= 6 ErrMin= 1.07D-07
 ErrMax= 1.07D-07  0.00D+00 EMaxC= 1.00D-01 BMatC= 3.78D-12 BMatP= 6.59D-11
 IDIUse=1 WtCom= 1.00D+00 WtEn= 0.00D+00
 Coeff-Com: -0.125D-02 0.131D-01 0.779D-01 0.823D-01 0.230D+00 0.597D+00
 Coeff:     -0.125D-02 0.131D-01 0.779D-01 0.823D-01 0.230D+00 0.597D+00
 Gap=     0.215 Goal=   None    Shift=    0.000
 RMSDP=1.09D-08 MaxDP=2.58D-07 DE=-4.59D-11 OVMax= 4.23D-07

 Cycle  13  Pass 1  IDiag  1:
 RMSU=  8.72D-09    CP:  1.00D+00  8.63D-01  8.39D-01  4.92D-01  6.70D-01
                    CP:  8.40D-01
 E= -1010.04206268882     Delta-E=       -0.000000000003 Rises=F Damp=F
 DIIS: error= 2.99D-08 at cycle   7 NSaved=   7.
 NSaved= 7 IEnMin= 7 EnMin= -1010.04206268882     IErMin= 7 ErrMin= 2.99D-08
 ErrMax= 2.99D-08  0.00D+00 EMaxC= 1.00D-01 BMatC= 4.36D-13 BMatP= 3.78D-12
 IDIUse=1 WtCom= 1.00D+00 WtEn= 0.00D+00
 Coeff-Com: -0.321D-03 0.110D-02 0.772D-02 0.898D-02 0.639D-01 0.303D+00
 Coeff-Com:  0.616D+00
 Coeff:     -0.321D-03 0.110D-02 0.772D-02 0.898D-02 0.639D-01 0.303D+00
 Coeff:      0.616D+00
 Gap=     0.215 Goal=   None    Shift=    0.000
 RMSDP=4.46D-09 MaxDP=1.60D-07 DE=-2.96D-12 OVMax= 2.54D-07

 SCF Done:  E(RAPFD) =  -1010.04206269     A.U. after   13 cycles
            NFock= 13  Conv=0.45D-08     -V/T= 2.0064
 KE= 1.003613936055D+03 PE=-4.050366296443D+03 EE= 1.200635800144D+03
 Leave Link  502 at Fri Oct  4 19:58:30 2024, MaxMem=  2097152000 cpu:             134.6 elap:               8.5
 (Enter /uufs/chpc.utah.edu/sys/installdir/gaussian16/C01/AVX/g16/l701.exe)
 ... and contract with generalized density number  0.
 Compute integral first derivatives.
 R6APFD:  NTU= -4 IXU= 1 FactS= 1.050
 R6Disp: Adding Petersson-Frisch dispersion energy 1st derivatives to the gradient.
 Leave Link  701 at Fri Oct  4 19:58:30 2024, MaxMem=  2097152000 cpu:               2.2 elap:               0.2
 (Enter /uufs/chpc.utah.edu/sys/installdir/gaussian16/C01/AVX/g16/l702.exe)
 L702 exits ... SP integral derivatives will be done elsewhere.
 Leave Link  702 at Fri Oct  4 19:58:30 2024, MaxMem=  2097152000 cpu:               0.6 elap:               0.1
[...]
           NBO                        Occupancy    Energy   (geminal,vicinal,remote)
 ====================================================================================
 Molecular unit  1  (C6H6FNO3S)
     1. BD (   1) F   1 - S   2          1.98083    -0.88716  179(g),180(g),177(g),40(v)
                                                    178(g),61(g)
     2. BD (   1) S   2 - C   3          1.96123    -0.73023  177(g),194(v),180(g),179(g)
                                                    183(v),141(v),81(v),62(g)
                                                    178(g)
     3. BD (   1) S   2 - O  11          1.98119    -1.01605  177(g),180(g),178(g),40(v)
                                                    181(v),63(g)
     4. BD (   1) S   2 - O  12          1.98174    -1.01347  177(g),179(g),178(g),182(v)
                                                    63(g),71(v)
     5. BD (   1) C   3 - C   4          1.98150    -0.77052  182(g),187(v),183(g),92(v)
                                                    185(g),142(v),141(v)
     6. BD (   1) C   3 - N  10          1.98488    -0.90248  132(v),181(g),196(v),194(g)
                                                    185(v),82(v)
     7. BD (   1) C   4 - C   5          1.97315    -0.75209  178(v),188(v),181(g),186(g)
                                                    101(v),71(v),187(g),185(g)
                                                    72(v)
     8. BD (   2) C   4 - C   5          1.66079    -0.29511  40(v),41(v),105(v),94(g)
                                                    75(v),73(v)
     9. BD (   1) C   4 - H  13          1.97817    -0.56787  182(v),186(v),72(v),183(g)
                                                    181(g),91(v)
    10. BD (   1) C   5 - C   6          1.97543    -0.75136  190(v),189(g),185(v),183(g)
                                                    196(v),82(v),187(g),131(v)
                                                    111(v),81(v),188(g)
    11. BD (   1) C   5 - H  14          1.97852    -0.56552  189(v),181(v),183(g),81(v)
                                                    188(v),186(g),104(v)
    12. BD (   1) C   6 - O   7          1.99171    -0.96861  122(v),183(v),194(v),189(g)
                                                    91(v),186(g),191(v)
    13. BD (   1) C   6 - C   9          1.98633    -0.76149  186(g),187(v),142(v),196(g)
                                                    194(g),91(v),92(v)
    14. BD (   1) O   7 - C   8          1.99230    -0.86703  186(v),101(v),102(v)
    15. BD (   1) C   8 - H  15          1.99078    -0.56119  188(v),111(v)
    16. BD (   1) C   8 - H  16          1.99528    -0.56556  112(v)
    17. BD (   1) C   8 - H  17          1.99530    -0.56562  112(v)
    18. BD (   1) C   9 - N  10          1.97839    -0.87435  178(v),188(v),72(v),182(g)
                                                    189(g),102(v),71(v),196(g)
    19. BD (   2) C   9 - N  10          1.73891    -0.33741  40(v),41(v),73(v),107(v)
                                                    195(g),75(v)
    20. BD (   1) C   9 - H  18          1.97908    -0.56888  182(v),186(v),141(v),101(v)
                                                    189(g)
    21. CR (   1) F   1                  1.99997   -24.58760   
    22. CR (   1) S   2                  2.00000   -87.71067  177(g)
    23. CR (   2) S   2                  1.99909    -9.52440  177(g),179(g),180(g),72(v)
                                                    181(v),164(v),154(v)
    24. CR (   3) S   2                  1.99991    -6.14154   
    25. CR (   4) S   2                  1.99989    -6.13952   
    26. CR (   5) S   2                  1.99987    -6.14543  177(g)
    27. CR (   1) C   3                  1.99880   -10.17066  82(v),194(v),178(g),142(v)
                                                    181(g),185(v),183(v)
    28. CR (   1) C   4                  1.99898   -10.11234  71(v),178(v),182(v),92(v)
                                                    91(v),186(v),187(v),72(v)
                                                    171(v)
    29. CR (   1) C   5                  1.99904   -10.11212  102(v),82(v),189(v),181(v)
                                                    185(v),188(v),172(v)
    30. CR (   1) C   6                  1.99884   -10.18243  92(v),132(v),190(v),188(g)
                                                    186(g),196(v),183(v),187(v)
                                                    189(g),194(v)
    31. CR (   1) O   7                  1.99973   -19.05178  101(v),189(v),121(v),122(v)
    32. CR (   1) C   8                  1.99942   -10.18063  188(v),190(g),173(v)
    33. CR (   1) C   9                  1.99912   -10.14367  101(v),182(v),188(v),186(v)
                                                    142(v),176(v)
    34. CR (   1) N  10                  1.99936   -14.20808  71(v),131(v),181(v),189(v)
                                                    178(v)
    35. CR (   1) O  11                  1.99988   -19.01658  63(v),66(v)
    36. CR (   1) O  12                  1.99988   -19.02113  63(v),66(v)
    37. LP (   1) F   1                  1.99341    -1.15966  67(v),68(v)
    38. LP (   2) F   1                  1.95470    -0.44266  179(v),180(v),63(v),64(v)
    39. LP (   3) F   1                  1.95109    -0.44515  178(v),65(v),40(r),180(v)
                                                    179(v)
    40. LP (   1) C   3                  1.09193    -0.17549  195(v),184(v),177(v),179(v)
                                                    143(v),65(v),83(v),73(g)
    41. LP*(   1) C   6                  0.95809    -0.15653  195(v),184(v),94(v),135(v)
                                                    107(g),112(v),115(v)
    42. LP (   1) O   7                  1.96271    -0.58817  189(v),101(v),121(v),191(v)
                                                    193(v),192(v),102(v),186(v)
                                                    104(v)
    43. LP (   2) O   7                  1.82040    -0.35161  41(v),193(v),192(v),103(v)
                                                    123(v)
    44. LP (   1) N  10                  1.90569    -0.37591  181(v),189(v),178(v),71(v)
                                                    131(v),196(v),72(v),188(r)
    45. LP (   1) O  11                  1.98252    -0.81506  180(v),66(v),67(v),178(v)
    46. LP (   2) O  11                  1.79410    -0.31022  180(v),178(v),62(v),64(v)
                                                    61(v),65(v),40(r),63(v)
                                                    157(g),158(g)
    47. LP (   3) O  11                  1.74141    -0.30986  177(v),61(v),64(v),180(v)
                                                    63(v),178(v),62(v),65(v)
                                                    66(v),155(g),160(g)
    48. LP (   1) O  12                  1.98291    -0.81738  66(v),179(v),178(v)
    49. LP (   2) O  12                  1.80900    -0.31801  179(v),178(v),62(v),64(v)
                                                    61(v),65(v),63(v),182(r)
                                                    169(g)
    50. LP (   3) O  12                  1.75162    -0.31478  177(v),64(v),61(v),179(v)
                                                    178(v),63(v),65(v),62(v)
                                                    168(g)
    51. RY*(   1) F   1                  0.00174     2.02526   
    52. RY*(   2) F   1                  0.00019     1.57956   
    53. RY*(   3) F   1                  0.00012     1.82743   
    54. RY*(   4) F   1                  0.00007     1.84290   
    55. RY*(   5) F   1                  0.00004     1.88339   
    56. RY*(   6) F   1                  0.00005     1.94419   
    57. RY*(   7) F   1                  0.00001     4.13156   
    58. RY*(   8) F   1                  0.00000     1.76502   
    59. RY*(   9) F   1                  0.00000     1.76158   
    60. RY*(  10) F   1                  0.00001     1.88940   
    61. RY*(   1) S   2                  0.07561     0.84138   
    62. RY*(   2) S   2                  0.06258     0.75620   
    63. RY*(   3) S   2                  0.04731     0.86297   
    64. RY*(   4) S   2                  0.03521     0.87447   
    65. RY*(   5) S   2                  0.01449     0.73316   
    66. RY*(   6) S   2                  0.00825     0.60834   
    67. RY*(   7) S   2                  0.00371     0.57449   
    68. RY*(   8) S   2                  0.00195     0.73551   
    69. RY*(   9) S   2                  0.00081     0.65312   
    70. RY*(  10) S   2                  0.00006     3.50338   
    71. RY*(   1) C   3                  0.01372     0.83540   
    72. RY*(   2) C   3                  0.00674     1.18057   
    73. RY*(   3) C   3                  0.00312     0.78647   
    74. RY*(   4) C   3                  0.00165     1.08957   
    75. RY*(   5) C   3                  0.00100     1.95285   
    76. RY*(   6) C   3                  0.00056     2.32085   
    77. RY*(   7) C   3                  0.00033     2.32043   
    78. RY*(   8) C   3                  0.00029     2.08250   
    79. RY*(   9) C   3                  0.00009     3.89948   
    80. RY*(  10) C   3                  0.00002     2.33392   
    81. RY*(   1) C   4                  0.00497     1.22081   
    82. RY*(   2) C   4                  0.00333     0.72756   
    83. RY*(   3) C   4                  0.00084     1.49447   
    84. RY*(   4) C   4                  0.00057     0.98912   
    85. RY*(   5) C   4                  0.00046     1.03593   
    86. RY*(   6) C   4                  0.00011     2.46932   
    87. RY*(   7) C   4                  0.00010     2.24605   
    88. RY*(   8) C   4                  0.00004     3.77812   
    89. RY*(   9) C   4                  0.00002     1.76370   
    90. RY*(  10) C   4                  0.00002     2.58327   
    91. RY*(   1) C   5                  0.00535     1.20190   
    92. RY*(   2) C   5                  0.00330     0.78147   
    93. RY*(   3) C   5                  0.00059     1.03831   
    94. RY*(   4) C   5                  0.00054     1.10723   
    95. RY*(   5) C   5                  0.00049     1.40357   
    96. RY*(   6) C   5                  0.00009     2.32117   
    97. RY*(   7) C   5                  0.00004     3.88469   
    98. RY*(   8) C   5                  0.00003     1.76330   
    99. RY*(   9) C   5                  0.00002     2.40616   
   100. RY*(  10) C   5                  0.00002     2.38900   
   101. RY*(   1) C   6                  0.00697     0.93730   
   102. RY*(   2) C   6                  0.00379     1.20928   
   103. RY*(   3) C   6                  0.00258     1.89929   
   104. RY*(   4) C   6                  0.00188     1.67086   
   105. RY*(   5) C   6                  0.00056     1.76532   
   106. RY*(   6) C   6                  0.00052     2.10407   
   107. RY*(   7) C   6                  0.00037     0.76329   
   108. RY*(   8) C   6                  0.00020     1.95417   
   109. RY*(   9) C   6                  0.00007     3.85456   
   110. RY*(  10) C   6                  0.00002     2.35593   
   111. RY*(   1) O   7                  0.00303     1.13515   
   112. RY*(   2) O   7                  0.00255     1.03689   
   113. RY*(   3) O   7                  0.00067     1.74162   
   114. RY*(   4) O   7                  0.00030     1.99009   
   115. RY*(   5) O   7                  0.00026     1.96843   
   116. RY*(   6) O   7                  0.00010     2.58549   
   117. RY*(   7) O   7                  0.00004     3.55662   
   118. RY*(   8) O   7                  0.00001     1.86115   
   119. RY*(   9) O   7                  0.00001     2.33573   
   120. RY*(  10) O   7                  0.00001     2.14395   
   121. RY*(   1) C   8                  0.00236     1.17497   
   122. RY*(   2) C   8                  0.00166     0.67557   
   123. RY*(   3) C   8                  0.00152     1.90383   
   124. RY*(   4) C   8                  0.00041     1.67970   
   125. RY*(   5) C   8                  0.00025     0.65726   
   126. RY*(   6) C   8                  0.00002     2.06536   
   127. RY*(   7) C   8                  0.00000     4.09089   
   128. RY*(   8) C   8                  0.00000     1.89355   
   129. RY*(   9) C   8                  0.00000     0.98251   
   130. RY*(  10) C   8                  0.00000     2.10637   
   131. RY*(   1) C   9                  0.00641     0.96715   
   132. RY*(   2) C   9                  0.00437     1.02045   
   133. RY*(   3) C   9                  0.00195     1.18576   
   134. RY*(   4) C   9                  0.00072     1.37565   
   135. RY*(   5) C   9                  0.00048     1.50084   
   136. RY*(   6) C   9                  0.00037     2.05952   
   137. RY*(   7) C   9                  0.00007     2.93736   
   138. RY*(   8) C   9                  0.00003     1.78494   
   139. RY*(   9) C   9                  0.00003     3.29685   
   140. RY*(  10) C   9                  0.00001     2.36850   
   141. RY*(   1) N  10                  0.00639     0.87366   
   142. RY*(   2) N  10                  0.00277     1.19727   
   143. RY*(   3) N  10                  0.00081     1.26801   
   144. RY*(   4) N  10                  0.00053     1.79858   
   145. RY*(   5) N  10                  0.00040     1.29344   
   146. RY*(   6) N  10                  0.00017     2.26381   
   147. RY*(   7) N  10                  0.00006     2.12790   
   148. RY*(   8) N  10                  0.00004     1.89907   
   149. RY*(   9) N  10                  0.00003     2.25173   
   150. RY*(  10) N  10                  0.00001     3.66383   
   151. RY*(   1) O  11                  0.00116     1.40256   
   152. RY*(   2) O  11                  0.00066     1.22102   
   153. RY*(   3) O  11                  0.00038     1.45942   
   154. RY*(   4) O  11                  0.00019     1.64519   
   155. RY*(   5) O  11                  0.00008     1.97303   
   156. RY*(   6) O  11                  0.00006     1.80762   
   157. RY*(   7) O  11                  0.00003     1.85728   
   158. RY*(   8) O  11                  0.00003     1.77439   
   159. RY*(   9) O  11                  0.00000     3.55407   
   160. RY*(  10) O  11                  0.00001     2.09187   
   161. RY*(   1) O  12                  0.00101     1.57384   
   162. RY*(   2) O  12                  0.00059     1.52694   
   163. RY*(   3) O  12                  0.00042     1.23853   
   164. RY*(   4) O  12                  0.00020     1.43911   
   165. RY*(   5) O  12                  0.00010     2.22319   
   166. RY*(   6) O  12                  0.00006     2.12020   
   167. RY*(   7) O  12                  0.00002     1.88411   
   168. RY*(   8) O  12                  0.00002     2.11939   
   169. RY*(   9) O  12                  0.00002     1.98631   
   170. RY*(  10) O  12                  0.00001     2.46272   
   171. RY*(   1) H  13                  0.00106     0.58175   
   172. RY*(   1) H  14                  0.00101     0.55620   
   173. RY*(   1) H  15                  0.00044     0.58739   
   174. RY*(   1) H  16                  0.00143     0.63902   
   175. RY*(   1) H  17                  0.00143     0.63884   
   176. RY*(   1) H  18                  0.00103     0.61691   
   177. BD*(   1) F   1 - S   2          0.38938     0.02429  61(g),40(v),62(g),179(g)
                                                    180(g),51(g),69(g),65(g)
   178. BD*(   1) S   2 - C   3          0.21464     0.15106  62(g),185(v),179(g),183(v)
                                                    194(v),74(g),180(g),68(g)
   179. BD*(   1) S   2 - O  11          0.14755     0.30413  180(g),63(g),61(g),64(g)
                                                    62(g),154(g),65(g),178(g)
                                                    67(g),153(g),181(v)
   180. BD*(   1) S   2 - O  12          0.15118     0.29789  179(g),63(g),61(g),62(g)
                                                    65(g),182(v),164(g),64(g)
                                                    66(g),181(v),71(v),178(g)
   181. BD*(   1) C   3 - C   4          0.03534     0.53415   
   182. BD*(   1) C   3 - N  10          0.02571     0.52966   
   183. BD*(   1) C   4 - C   5          0.01431     0.56646   
   184. BD*(   2) C   4 - C   5          0.28166     0.00321  41(v),40(v),85(g),195(r)
                                                    95(g)
   185. BD*(   1) C   4 - H  13          0.01433     0.47211   
   186. BD*(   1) C   5 - C   6          0.02333     0.53229   
   187. BD*(   1) C   5 - H  14          0.01218     0.46184   
   188. BD*(   1) C   6 - O   7          0.02870     0.37149   
   189. BD*(   1) C   6 - C   9          0.04049     0.51442   
   190. BD*(   1) O   7 - C   8          0.00842     0.26826   
   191. BD*(   1) C   8 - H  15          0.00742     0.45029   
   192. BD*(   1) C   8 - H  16          0.01729     0.42006   
   193. BD*(   1) C   8 - H  17          0.01731     0.41983   
   194. BD*(   1) C   9 - N  10          0.01356     0.53491   
   195. BD*(   2) C   9 - N  10          0.39138    -0.02109  41(v),40(v),133(g),184(r)
                                                    145(g)
   196. BD*(   1) C   9 - H  18          0.02102     0.45854   
       -------------------------------
              Total Lewis   94.81875  ( 96.7538%)
        Valence non-Lewis    2.81329  (  2.8707%)
        Rydberg non-Lewis    0.36795  (  0.3755%)
       -------------------------------
            Total unit  1   98.00000  (100.0000%)
           Charge unit  1    0.00000


 NATURAL LOCALIZED MOLECULAR ORBITAL (NLMO) ANALYSIS:

 Highest occupied NBOs are not at the beginning of the NBO list;
 The NLMO program is not currently set up to handle this.
 Leave Link  607 at Fri Oct  4 20:03:53 2024, MaxMem=  2097152000 cpu:              27.9 elap:               1.8
 (Enter /uufs/chpc.utah.edu/sys/installdir/gaussian16/C01/AVX/g16/l9999.exe)
 Unable to Open any file for archive entry.
 1\1\GINC-NOTCH056\SP\RAPFD\6-31G(d)\C6H6F1N1O3S1\U1318517\04-Oct-2024\
 0\\#p apfd/6-31G* volume NMR pop=NPA geom=check guess=read\\ID-4008\\0
 ,1\F,0,4.1003404628,-0.4307480122,0.5030441459\S,0,2.7055006129,0.1549
 801515,-0.0400827726\C,0,3.2000528284,1.8484471328,-0.3137581605\C,0,2
 .6863237398,2.8397654163,0.5203289267\C,0,3.0779212667,4.1421250487,0.
 2603113933\C,0,3.955475986,4.3912658394,-0.8016141653\O,0,4.2978614814
 ,5.6749433767,-1.0028074667\C,0,5.1843770424,5.9760534484,-2.06788119\
 C,0,4.4077360727,3.3015137456,-1.5686862158\N,0,4.0279667635,2.0526954
 223,-1.3223706854\O,0,2.4407707199,-0.5212717828,-1.2850216116\O,0,1.7
 887594708,0.1126575915,1.0782814478\H,0,2.0105063991,2.590169304,1.331
 0611297\H,0,2.7233904981,4.9772265612,0.8572132147\H,0,5.3178638856,7.
 0576562131,-2.0434633688\H,0,4.7585634935,5.6828724022,-3.0351638221\H
 ,0,6.1554413131,5.4856044798,-1.9284521635\H,0,5.0904479634,3.43462366
 17,-2.4027586359\\Version=ES64L-G16RevC.01\State=1-A\HF=-1010.0473631\
 RMSD=6.069e-09\Dipole=0.9076216,2.7023053,-0.306445\Quadrupole=0.33359
 66,-0.9175852,0.5839886,0.902148,-3.1805074,-3.9649426\PG=C01 [X(C6H6F
 1N1O3S1)]\\@
 The archive entry for this job was punched.


 ALL OUR THINKING ABOUT NATURE MUST NECESSARILY MOVE IN CIRCLES OR SPIRALS;
 FOR WE CAN ONLY UNDERSTAND NATURE IF WE THINK ABOUT HER, AND WE CAN ONLY
 THINK BECAUSE OUR BRAIN IS BUILT IN ACCORDANCE WITH NATURE'S LAWS.

                                             -- TIMOTHY FERRIS, "GALAXIES"
 Job cpu time:       0 days  0 hours  2 minutes 51.3 seconds.
 Elapsed time:       0 days  0 hours  0 minutes 12.8 seconds.
 File lengths (MBytes):  RWF=     40 Int=      0 D2E=      0 Chk=      6 Scr=      2
 Normal termination of Gaussian 16 at Fri Oct  4 20:03:54 2024.
