 Entering Gaussian System, Link 0=g16
 Input=ID-4009.com
 Output=ID-4009.log
 Initial command:
 /uufs/chpc.utah.edu/sys/installdir/gaussian16/C01/AVX/g16/l1.exe "/scratch/general/vast/u1318517/1930439-notchpeak.peaks/Gau-2449384.inp" -scrdir="/scratch/general/vast/u1318517/1930439-notchpeak.peaks/"
 Entering Link 1 = /uufs/chpc.utah.edu/sys/installdir/gaussian16/C01/AVX/g16/l1.exe PID=   2449385.
  
 Copyright (c) 1988-2019, Gaussian, Inc.  All Rights Reserved.
  
 This is part of the Gaussian(R) 16 program.  It is based on
 the Gaussian(R) 09 system (copyright 2009, Gaussian, Inc.),
 the Gaussian(R) 03 system (copyright 2003, Gaussian, Inc.),
 the Gaussian(R) 98 system (copyright 1998, Gaussian, Inc.),
 the Gaussian(R) 94 system (copyright 1995, Gaussian, Inc.),
 the Gaussian 92(TM) system (copyright 1992, Gaussian, Inc.),
 the Gaussian 90(TM) system (copyright 1990, Gaussian, Inc.),
 the Gaussian 88(TM) system (copyright 1988, Gaussian, Inc.),
 the Gaussian 86(TM) system (copyright 1986, Carnegie Mellon
 University), and the Gaussian 82(TM) system (copyright 1983,
 Carnegie Mellon University). Gaussian is a federally registered
 trademark of Gaussian, Inc.
  
 This software contains proprietary and confidential information,
 including trade secrets, belonging to Gaussian, Inc.
  
 This software is provided under written license and may be
 used, copied, transmitted, or stored only in accord with that
 written license.
  
 The following legend is applicable only to US Government
 contracts under FAR:
  
                    RESTRICTED RIGHTS LEGEND
  
 Use, reproduction and disclosure by the US Government is
 subject to restrictions as set forth in subparagraphs (a)
 and (c) of the Commercial Computer Software - Restricted
 Rights clause in FAR 52.227-19.
  
 Gaussian, Inc.
 340 Quinnipiac St., Bldg. 40, Wallingford CT 06492
  
  
 ---------------------------------------------------------------
 Warning -- This program may not be used in any manner that
 competes with the business of Gaussian, Inc. or will provide
 assistance to any competitor of Gaussian, Inc.  The licensee
 of this program is prohibited from giving any competitor of
 Gaussian, Inc. access to this program.  By using this program,
 the user acknowledges that Gaussian, Inc. is engaged in the
 business of creating and licensing software in the field of
 computational chemistry and represents and warrants to the
 licensee that it is not a competitor of Gaussian, Inc. and that
 it will not use this program in any manner prohibited above.
 ---------------------------------------------------------------
  

 Cite this work as:
 Gaussian 16, Revision C.01,
 M. J. Frisch, G. W. Trucks, H. B. Schlegel, G. E. Scuseria, 
 M. A. Robb, J. R. Cheeseman, G. Scalmani, V. Barone, 
 G. A. Petersson, H. Nakatsuji, X. Li, M. Caricato, A. V. Marenich, 
 J. Bloino, B. G. Janesko, R. Gomperts, B. Mennucci, H. P. Hratchian, 
 J. V. Ortiz, A. F. Izmaylov, J. L. Sonnenberg, D. Williams-Young, 
 F. Ding, F. Lipparini, F. Egidi, J. Goings, B. Peng, A. Petrone, 
 T. Henderson, D. Ranasinghe, V. G. Zakrzewski, J. Gao, N. Rega, 
 G. Zheng, W. Liang, M. Hada, M. Ehara, K. Toyota, R. Fukuda, 
 J. Hasegawa, M. Ishida, T. Nakajima, Y. Honda, O. Kitao, H. Nakai, 
 T. Vreven, K. Throssell, J. A. Montgomery, Jr., J. E. Peralta, 
 F. Ogliaro, M. J. Bearpark, J. J. Heyd, E. N. Brothers, K. N. Kudin, 
 V. N. Staroverov, T. A. Keith, R. Kobayashi, J. Normand, 
 K. Raghavachari, A. P. Rendell, J. C. Burant, S. S. Iyengar, 
 J. Tomasi, M. Cossi, J. M. Millam, M. Klene, C. Adamo, R. Cammi, 
 J. W. Ochterski, R. L. Martin, K. Morokuma, O. Farkas, 
 J. B. Foresman, and D. J. Fox, Gaussian, Inc., Wallingford CT, 2019.
 
 ******************************************
 Gaussian 16:  ES64L-G16RevC.01  3-Jul-2019
                 4-Oct-2024 
 ******************************************
 %nprocs=16
 Will use up to   16 processors via shared memory.
 %mem=16000MB
 %chk=ID-4009.chk
 -------------------------------
 #p apfd/6-31G* opt freq=noraman
 -------------------------------
 1/18=20,19=15,26=3,38=1/1,3;
 2/9=110,12=2,17=6,18=5,40=1/2;
 3/5=1,6=6,7=1,11=2,25=1,30=1,71=1,74=-44/1,2,3;
 4//1;
 5/5=2,38=5/2;
 6/7=2,8=2,9=2,10=2,28=1/1;
 7//1,2,3,16;
 1/18=20,19=15,26=3/3(2);
 2/9=110/2;
 99//99;
 2/9=110/2;
 3/5=1,6=6,7=1,11=2,25=1,30=1,71=1,74=-44/1,2,3;
 4/5=5,16=3,69=1/1;
 5/5=2,38=5/2;
 7//1,2,3,16;
 1/18=20,19=15,26=3/3(-5);
 2/9=110/2;
 6/7=2,8=2,9=2,10=2,19=2,28=1/1;
 99/9=1/99;
 Leave Link    1 at Fri Oct  4 20:00:32 2024, MaxMem=  2097152000 cpu:               1.1 elap:               0.1
 (Enter /uufs/chpc.utah.edu/sys/installdir/gaussian16/C01/AVX/g16/l101.exe)
 -------
 ID-4009
 -------
 Symbolic Z-matrix:
 Charge =  0 Multiplicity = 1
 C                     1.14988  -0.03884   0.00778 
 C                     2.64732   0.04702   0.01683 
 C                     3.29475   1.281    -0.00161 
 C                     4.69914   1.33621  -0.0041 
 C                     5.38716   2.67528  -0.01958 
 C                     5.42452   0.13353   0.00963 
 C                     6.85542   0.12436  -0.0066 
 N                     8.01429   0.1445   -0.02532 
 C                     4.68761  -1.03991   0.0336 
 S                     5.48881  -2.6229    0.07021 
 F                     4.35186  -3.72997   0.0969 
 O                     6.16991  -2.80077  -1.19709 
 O                     6.1703   -2.74037   1.34448 
 N                     3.3251   -1.12088   0.03747 
 H                     0.68631   0.95271   0.01018 
 H                     0.80262  -0.57986   0.89336 
 H                     0.81496  -0.57026  -0.88837 
 H                     2.70977   2.1982   -0.01532 
 H                     4.66336   3.49731  -0.02263 
 H                     6.00475   2.77602  -0.91774 
 H                     6.01284   2.79163   0.87134 
 
 ITRead=  0  0  0  0  0  0  0  0  0  0  0  0  0  0  0  0  0  0  0  0
 ITRead=  0
 MicOpt= -1 -1 -1 -1 -1 -1 -1 -1 -1 -1 -1 -1 -1 -1 -1 -1 -1 -1 -1 -1
 MicOpt= -1
 NAtoms=     21 NQM=       21 NQMF=       0 NMMI=      0 NMMIF=      0
                NMic=       0 NMicF=      0.
                    Isotopes and Nuclear Properties:
 (Nuclear quadrupole moments (NQMom) in fm**2, nuclear magnetic moments (NMagM)
  in nuclear magnetons)

  Atom         1           2           3           4           5           6           7           8           9          10
 IAtWgt=          12          12          12          12          12          12          12          14          12          32
 AtmWgt=  12.0000000  12.0000000  12.0000000  12.0000000  12.0000000  12.0000000  12.0000000  14.0030740  12.0000000  31.9720718
 NucSpn=           0           0           0           0           0           0           0           2           0           0
 AtZEff=  -0.0000000  -0.0000000  -0.0000000  -0.0000000  -0.0000000  -0.0000000  -0.0000000  -0.0000000  -0.0000000  -0.0000000
 NQMom=    0.0000000   0.0000000   0.0000000   0.0000000   0.0000000   0.0000000   0.0000000   2.0440000   0.0000000   0.0000000
 NMagM=    0.0000000   0.0000000   0.0000000   0.0000000   0.0000000   0.0000000   0.0000000   0.4037610   0.0000000   0.0000000
 AtZNuc=   6.0000000   6.0000000   6.0000000   6.0000000   6.0000000   6.0000000   6.0000000   7.0000000   6.0000000  16.0000000

  Atom        11          12          13          14          15          16          17          18          19          20
 IAtWgt=          19          16          16          14           1           1           1           1           1           1
 AtmWgt=  18.9984032  15.9949146  15.9949146  14.0030740   1.0078250   1.0078250   1.0078250   1.0078250   1.0078250   1.0078250
 NucSpn=           1           0           0           2           1           1           1           1           1           1
 AtZEff=  -0.0000000  -0.0000000  -0.0000000  -0.0000000  -0.0000000  -0.0000000  -0.0000000  -0.0000000  -0.0000000  -0.0000000
 NQMom=    0.0000000   0.0000000   0.0000000   2.0440000   0.0000000   0.0000000   0.0000000   0.0000000   0.0000000   0.0000000
 NMagM=    2.6288670   0.0000000   0.0000000   0.4037610   2.7928460   2.7928460   2.7928460   2.7928460   2.7928460   2.7928460
 AtZNuc=   9.0000000   8.0000000   8.0000000   7.0000000   1.0000000   1.0000000   1.0000000   1.0000000   1.0000000   1.0000000

  Atom        21
 IAtWgt=           1
 AtmWgt=   1.0078250
 NucSpn=           1
 AtZEff=  -0.0000000
 NQMom=    0.0000000
 NMagM=    2.7928460
 AtZNuc=   1.0000000
 Leave Link  101 at Fri Oct  4 20:00:32 2024, MaxMem=  2097152000 cpu:              10.5 elap:               0.7
 (Enter /uufs/chpc.utah.edu/sys/installdir/gaussian16/C01/AVX/g16/l103.exe)

 GradGradGradGradGradGradGradGradGradGradGradGradGradGradGradGradGradGrad
 Berny optimization.
 Initialization pass.
                           ----------------------------
                           !    Initial Parameters    !
                           ! (Angstroms and Degrees)  !
 --------------------------                            --------------------------
 ! Name  Definition              Value          Derivative Info.                !
 --------------------------------------------------------------------------------
 ! R1    R(1,2)                  1.4999         estimate D2E/DX2                !
 ! R2    R(1,15)                 1.0946         estimate D2E/DX2                !
 ! R3    R(1,16)                 1.0943         estimate D2E/DX2                !
 ! R4    R(1,17)                 1.0944         estimate D2E/DX2                !
 ! R5    R(2,3)                  1.3936         estimate D2E/DX2                !
 ! R6    R(2,14)                 1.3505         estimate D2E/DX2                !
 ! R7    R(3,4)                  1.4055         estimate D2E/DX2                !
 ! R8    R(3,18)                 1.088          estimate D2E/DX2                !
 ! R9    R(4,5)                  1.5056         estimate D2E/DX2                !
 ! R10   R(4,6)                  1.4046         estimate D2E/DX2                !
 ! R11   R(5,19)                 1.0953         estimate D2E/DX2                !
 ! R12   R(5,20)                 1.0946         estimate D2E/DX2                !
 ! R13   R(5,21)                 1.0949         estimate D2E/DX2                !
 ! R14   R(6,7)                  1.431          estimate D2E/DX2                !
 ! R15   R(6,9)                  1.3858         estimate D2E/DX2                !
 ! R16   R(7,8)                  1.1592         estimate D2E/DX2                !
 ! R17   R(9,10)                 1.7746         estimate D2E/DX2                !
 ! R18   R(9,14)                 1.3649         estimate D2E/DX2                !
 ! R19   R(10,11)                1.5871         estimate D2E/DX2                !
 ! R20   R(10,12)                1.4497         estimate D2E/DX2                !
 ! R21   R(10,13)                1.4498         estimate D2E/DX2                !
 ! A1    A(2,1,15)             111.7741         estimate D2E/DX2                !
 ! A2    A(2,1,16)             109.8903         estimate D2E/DX2                !
 ! A3    A(2,1,17)             109.7713         estimate D2E/DX2                !
 ! A4    A(15,1,16)            108.161          estimate D2E/DX2                !
 ! A5    A(15,1,17)            108.1841         estimate D2E/DX2                !
 ! A6    A(16,1,17)            108.9948         estimate D2E/DX2                !
 ! A7    A(1,2,3)              120.9572         estimate D2E/DX2                !
 ! A8    A(1,2,14)             116.8487         estimate D2E/DX2                !
 ! A9    A(3,2,14)             122.1934         estimate D2E/DX2                !
 ! A10   A(2,3,4)              119.9345         estimate D2E/DX2                !
 ! A11   A(2,3,18)             119.7917         estimate D2E/DX2                !
 ! A12   A(4,3,18)             120.2738         estimate D2E/DX2                !
 ! A13   A(3,4,5)              119.445          estimate D2E/DX2                !
 ! A14   A(3,4,6)              118.8417         estimate D2E/DX2                !
 ! A15   A(5,4,6)              121.7132         estimate D2E/DX2                !
 ! A16   A(4,5,19)             111.4422         estimate D2E/DX2                !
 ! A17   A(4,5,20)             110.3721         estimate D2E/DX2                !
 ! A18   A(4,5,21)             110.3222         estimate D2E/DX2                !
 ! A19   A(19,5,20)            107.5467         estimate D2E/DX2                !
 ! A20   A(19,5,21)            107.4668         estimate D2E/DX2                !
 ! A21   A(20,5,21)            109.6007         estimate D2E/DX2                !
 ! A22   A(4,6,7)              121.4515         estimate D2E/DX2                !
 ! A23   A(4,6,9)              116.781          estimate D2E/DX2                !
 ! A24   A(7,6,9)              121.7669         estimate D2E/DX2                !
 ! A25   A(6,9,10)             121.0375         estimate D2E/DX2                !
 ! A26   A(6,9,14)             125.5265         estimate D2E/DX2                !
 ! A27   A(10,9,14)            113.4354         estimate D2E/DX2                !
 ! A28   A(9,10,11)            107.4062         estimate D2E/DX2                !
 ! A29   A(9,10,12)            107.6701         estimate D2E/DX2                !
 ! A30   A(9,10,13)            107.6157         estimate D2E/DX2                !
 ! A31   A(11,10,12)           105.4074         estimate D2E/DX2                !
 ! A32   A(11,10,13)           105.3923         estimate D2E/DX2                !
 ! A33   A(12,10,13)           122.5173         estimate D2E/DX2                !
 ! A34   A(2,14,9)             116.7212         estimate D2E/DX2                !
 ! A35   L(6,7,8,12,-1)        181.1558         estimate D2E/DX2                !
 ! A36   L(6,7,8,12,-2)        179.2094         estimate D2E/DX2                !
 ! D1    D(15,1,2,3)            -1.3649         estimate D2E/DX2                !
 ! D2    D(15,1,2,14)          178.9201         estimate D2E/DX2                !
 ! D3    D(16,1,2,3)          -121.4608         estimate D2E/DX2                !
 ! D4    D(16,1,2,14)           58.8242         estimate D2E/DX2                !
 ! D5    D(17,1,2,3)           118.6803         estimate D2E/DX2                !
 ! D6    D(17,1,2,14)          -61.0347         estimate D2E/DX2                !
 ! D7    D(1,2,3,4)           -179.4615         estimate D2E/DX2                !
 ! D8    D(1,2,3,18)             0.46           estimate D2E/DX2                !
 ! D9    D(14,2,3,4)             0.2381         estimate D2E/DX2                !
 ! D10   D(14,2,3,18)         -179.8404         estimate D2E/DX2                !
 ! D11   D(1,2,14,9)           179.433          estimate D2E/DX2                !
 ! D12   D(3,2,14,9)            -0.2782         estimate D2E/DX2                !
 ! D13   D(2,3,4,5)           -179.8028         estimate D2E/DX2                !
 ! D14   D(2,3,4,6)              0.1211         estimate D2E/DX2                !
 ! D15   D(18,3,4,5)             0.2761         estimate D2E/DX2                !
 ! D16   D(18,3,4,6)          -179.8            estimate D2E/DX2                !
 ! D17   D(3,4,5,19)             0.276          estimate D2E/DX2                !
 ! D18   D(3,4,5,20)          -119.1537         estimate D2E/DX2                !
 ! D19   D(3,4,5,21)           119.5726         estimate D2E/DX2                !
 ! D20   D(6,4,5,19)          -179.6457         estimate D2E/DX2                !
 ! D21   D(6,4,5,20)            60.9247         estimate D2E/DX2                !
 ! D22   D(6,4,5,21)           -60.349          estimate D2E/DX2                !
 ! D23   D(3,4,6,7)            179.3199         estimate D2E/DX2                !
 ! D24   D(3,4,6,9)             -0.4031         estimate D2E/DX2                !
 ! D25   D(5,4,6,7)             -0.758          estimate D2E/DX2                !
 ! D26   D(5,4,6,9)            179.519          estimate D2E/DX2                !
 ! D27   D(4,6,9,10)          -179.3439         estimate D2E/DX2                !
 ! D28   D(4,6,9,14)             0.3808         estimate D2E/DX2                !
 ! D29   D(7,6,9,10)             0.934          estimate D2E/DX2                !
 ! D30   D(7,6,9,14)          -179.3413         estimate D2E/DX2                !
 ! D31   D(6,9,10,11)          179.8061         estimate D2E/DX2                !
 ! D32   D(6,9,10,12)          -67.1095         estimate D2E/DX2                !
 ! D33   D(6,9,10,13)           66.7649         estimate D2E/DX2                !
 ! D34   D(14,9,10,11)           0.0503         estimate D2E/DX2                !
 ! D35   D(14,9,10,12)         113.1347         estimate D2E/DX2                !
 ! D36   D(14,9,10,13)        -112.9909         estimate D2E/DX2                !
 ! D37   D(6,9,14,2)            -0.0395         estimate D2E/DX2                !
 ! D38   D(10,9,14,2)          179.7034         estimate D2E/DX2                !
 --------------------------------------------------------------------------------
 Trust Radius=3.00D-01 FncErr=1.00D-07 GrdErr=1.00D-06 EigMax=2.50D+02 EigMin=1.00D-04
 Number of steps in this run=    105 maximum allowed number of steps=    126.
 GradGradGradGradGradGradGradGradGradGradGradGradGradGradGradGradGradGrad

 Leave Link  103 at Fri Oct  4 20:00:33 2024, MaxMem=  2097152000 cpu:               0.2 elap:               0.0
 (Enter /uufs/chpc.utah.edu/sys/installdir/gaussian16/C01/AVX/g16/l202.exe)
                          Input orientation:                          
 ---------------------------------------------------------------------
 Center     Atomic      Atomic             Coordinates (Angstroms)
 Number     Number       Type             X           Y           Z
 ---------------------------------------------------------------------
      1          6           0        1.149880   -0.038840    0.007780
      2          6           0        2.647320    0.047020    0.016830
      3          6           0        3.294750    1.281000   -0.001610
      4          6           0        4.699140    1.336210   -0.004100
      5          6           0        5.387160    2.675280   -0.019580
      6          6           0        5.424520    0.133530    0.009630
      7          6           0        6.855420    0.124360   -0.006600
      8          7           0        8.014290    0.144500   -0.025320
      9          6           0        4.687610   -1.039910    0.033600
     10         16           0        5.488810   -2.622900    0.070210
     11          9           0        4.351860   -3.729970    0.096900
     12          8           0        6.169910   -2.800770   -1.197090
     13          8           0        6.170300   -2.740370    1.344480
     14          7           0        3.325100   -1.120880    0.037470
     15          1           0        0.686310    0.952710    0.010180
     16          1           0        0.802620   -0.579860    0.893360
     17          1           0        0.814960   -0.570260   -0.888370
     18          1           0        2.709770    2.198200   -0.015320
     19          1           0        4.663360    3.497310   -0.022630
     20          1           0        6.004750    2.776020   -0.917740
     21          1           0        6.012840    2.791630    0.871340
 ---------------------------------------------------------------------
                    Distance matrix (angstroms):
                    1          2          3          4          5
     1  C    0.000000
     2  C    1.499927   0.000000
     3  C    2.518439   1.393633   0.000000
     4  C    3.806330   2.423306   1.405477   0.000000
     5  C    5.032071   3.796814   2.514462   1.505563   0.000000
     6  C    4.278114   2.778556   2.419242   1.404565   2.542192
     7  C    5.707892   4.208876   3.743823   2.473485   2.943323
     8  N    6.866938   5.368021   4.854508   3.522903   3.647834
     9  C    3.676730   2.311813   2.707013   2.376447   3.780851
    10  S    5.050503   3.899409   4.478782   4.037778   5.299916
    11  F    4.887234   4.144577   5.122207   5.079073   6.489425
    12  O    5.854970   4.689579   5.133864   4.549834   5.655648
    13  O    5.855736   4.684398   5.123686   4.538886   5.639436
    14  N    2.429665   1.350482   2.402390   2.815494   4.320437
    15  H    1.094566   2.160065   2.629044   4.031139   5.006608
    16  H    1.094324   2.136399   3.236431   4.433918   5.696262
    17  H    1.094378   2.134939   3.219140   4.416267   5.673917
    18  H    2.727295   2.152326   1.087955   2.168120   2.719566
    19  H    4.984960   3.996308   2.604912   2.161476   1.095276
    20  H    5.687687   4.426420   3.227767   2.147652   1.094649
    21  H    5.692598   4.426036   3.229870   2.147196   1.094875
                    6          7          8          9         10
     6  C    0.000000
     7  C    1.431021   0.000000
     8  N    2.590029   1.159196   0.000000
     9  C    1.385847   2.461004   3.531727   0.000000
    10  S    2.757845   3.069358   3.747756   1.774576   0.000000
    11  F    4.010592   4.597215   5.332902   2.711671   1.587127
    12  O    3.259125   3.231652   3.667342   2.610065   1.449684
    13  O    3.255352   3.240599   3.687699   2.609280   1.449825
    14  N    2.445789   3.743758   4.857328   1.364919   2.634156
    15  H    4.808502   6.224497   7.372500   4.470065   5.987704
    16  H    4.759397   6.159727   7.305947   4.005494   5.178027
    17  H    4.748660   6.143873   7.286020   4.008493   5.193947
    18  H    3.410770   4.635440   5.688209   3.794681   5.565374
    19  H    3.448974   4.022708   4.740261   4.537633   6.176322
    20  H    2.859971   2.930037   3.429222   4.147436   5.512765
    21  H    2.855549   2.931731   3.437601   4.139896   5.498505
                   11         12         13         14         15
    11  F    0.000000
    12  O    2.417256   0.000000
    13  O    2.417124   2.542288   0.000000
    14  N    2.804482   3.526913   3.525080   0.000000
    15  H    5.947375   6.753960   6.744875   3.356149   0.000000
    16  H    4.811927   6.173348   5.803732   2.718116   1.772655
    17  H    4.843985   5.809128   6.194729   2.731513   1.772958
    18  H    6.152418   6.193452   6.181731   3.376049   2.376191
    19  H    7.234977   6.581403   6.561136   4.808558   4.721546
    20  H    6.788921   5.586224   5.964529   4.824809   5.698359
    21  H    6.774207   5.964731   5.554429   4.819442   5.700451
                   16         17         18         19         20
    16  H    0.000000
    17  H    1.781799   0.000000
    18  H    3.490063   3.466539   0.000000
    19  H    5.689259   5.666111   2.346115   0.000000
    20  H    6.450129   6.175142   3.464842   1.766581   0.000000
    21  H    6.205951   6.435592   3.471109   1.765860   1.789166
                   21
    21  H    0.000000
 Stoichiometry    C8H7FN2O2S
 Framework group  C1[X(C8H7FN2O2S)]
 Deg. of freedom    57
 Full point group                 C1      NOp   1
 Largest Abelian subgroup         C1      NOp   1
 Largest concise Abelian subgroup C1      NOp   1
                         Standard orientation:                         
 ---------------------------------------------------------------------
 Center     Atomic      Atomic             Coordinates (Angstroms)
 Number     Number       Type             X           Y           Z
 ---------------------------------------------------------------------
      1          6           0       -2.474412   -2.833931   -0.016949
      2          6           0       -1.814567   -1.487017   -0.002562
      3          6           0       -2.572445   -0.317497    0.005030
      4          6           0       -1.931723    0.933437    0.007047
      5          6           0       -2.761207    2.189826    0.019779
      6          6           0       -0.527816    0.975634   -0.001299
      7          6           0        0.181782    2.218262   -0.014232
      8          7           0        0.732369    3.238237   -0.029733
      9          6           0        0.133512   -0.242240   -0.002380
     10         16           0        1.906336   -0.320736    0.004797
     11          9           0        2.313657   -1.854704    0.006779
     12          8           0        2.375021    0.200576   -1.264121
     13          8           0        2.363453    0.200448    1.278140
     14          7           0       -0.464201   -1.469327   -0.003425
     15          1           0       -3.565684   -2.751701    0.003975
     16          1           0       -2.159123   -3.412329    0.856888
     17          1           0       -2.190083   -3.375777   -0.924266
     18          1           0       -3.658749   -0.377336    0.008079
     19          1           0       -3.832511    1.962220    0.031263
     20          1           0       -2.560489    2.788047   -0.874705
     21          1           0       -2.541354    2.781573    0.914348
 ---------------------------------------------------------------------
 Rotational constants (GHZ):           0.8211826           0.5895635           0.3708456
 Leave Link  202 at Fri Oct  4 20:00:33 2024, MaxMem=  2097152000 cpu:               0.1 elap:               0.0
 (Enter /uufs/chpc.utah.edu/sys/installdir/gaussian16/C01/AVX/g16/l301.exe)
 Standard basis: 6-31G(d) (6D, 7F)
 Ernie: Thresh=  0.10000D-02 Tol=  0.10000D-05 Strict=F.
 There are   228 symmetry adapted cartesian basis functions of A   symmetry.
 There are   228 symmetry adapted basis functions of A   symmetry.
   228 basis functions,   444 primitive gaussians,   228 cartesian basis functions
    55 alpha electrons       55 beta electrons
       nuclear repulsion energy      1023.8034343514 Hartrees.
 IExCor= 3731 DFT=T Ex+Corr=APFD ExCW=0 ScaHFX=  0.229450
 ScaDFX=  1.000000  1.000000  1.000000  1.000000 ScalE2=  1.000000  1.000000
 IRadAn=      5 IRanWt=     -1 IRanGd=            0 ICorTp=0 IEmpDi=211
 NAtoms=   21 NActive=   21 NUniq=   21 SFac= 1.00D+00 NAtFMM=   60 NAOKFM=F Big=F
 Integral buffers will be    131072 words long.
 Raffenetti 2 integral format.
 Two-electron integral symmetry is turned on.
 R6APFD:  NTU= -4 IXU= 1 FactS= 1.050
 R6Disp:  Petersson-Frisch Dispersion energy=       -0.0195401794 Hartrees.
 Nuclear repulsion after empirical dispersion term =     1023.7838941720 Hartrees.
 Leave Link  301 at Fri Oct  4 20:00:33 2024, MaxMem=  2097152000 cpu:               0.9 elap:               0.1
 (Enter /uufs/chpc.utah.edu/sys/installdir/gaussian16/C01/AVX/g16/l302.exe)
 NPDir=0 NMtPBC=     1 NCelOv=     1 NCel=       1 NClECP=     1 NCelD=      1
         NCelK=      1 NCelE2=     1 NClLst=     1 CellRange=     0.0.
 One-electron integrals computed using PRISM.
 One-electron integral symmetry used in STVInt
 NBasis=   228 RedAO= T EigKep=  5.47D-04  NBF=   228
 NBsUse=   228 1.00D-06 EigRej= -1.00D+00 NBFU=   228
 Precomputing XC quadrature grid using
 IXCGrd= 4 IRadAn=           5 IRanWt=          -1 IRanGd=           0 AccXCQ= 0.00D+00.
 Generated NRdTot=       0 NPtTot=           0 NUsed=           0 NTot=          32
 NSgBfM=   228   227   228   228   228 MxSgAt=    21 MxSgA2=    21.
 Leave Link  302 at Fri Oct  4 20:00:33 2024, MaxMem=  2097152000 cpu:               4.2 elap:               0.3
 (Enter /uufs/chpc.utah.edu/sys/installdir/gaussian16/C01/AVX/g16/l303.exe)
 DipDrv:  MaxL=1.
 Leave Link  303 at Fri Oct  4 20:00:33 2024, MaxMem=  2097152000 cpu:               0.8 elap:               0.1
 (Enter /uufs/chpc.utah.edu/sys/installdir/gaussian16/C01/AVX/g16/l401.exe)
 ExpMin= 1.17D-01 ExpMax= 2.19D+04 ExpMxC= 3.30D+03 IAcc=3 IRadAn=         5 AccDes= 0.00D+00
 Harris functional with IExCor= 3731 and IRadAn=       5 diagonalized for initial guess.
 HarFok:  IExCor= 3731 AccDes= 0.00D+00 IRadAn=         5 IDoV= 1 UseB2=F ITyADJ=14
 ICtDFT=  3500011 ScaDFX=  1.000000  1.000000  1.000000  1.000000
 FoFCou: FMM=F IPFlag=           0 FMFlag=      100000 FMFlg1=           0
         NFxFlg=           0 DoJE=T BraDBF=F KetDBF=T FulRan=T
         wScrn=  0.000000 ICntrl=       500 IOpCl=  0 I1Cent=   200000004 NGrid=           0
         NMat0=    1 NMatS0=      1 NMatT0=    0 NMatD0=    1 NMtDS0=    0 NMtDT0=    0
 Petite list used in FoFCou.
 Harris En= -1041.74255600537    
 JPrj=0 DoOrth=F DoCkMO=F.
 Leave Link  401 at Fri Oct  4 20:00:34 2024, MaxMem=  2097152000 cpu:              12.7 elap:               0.8
 (Enter /uufs/chpc.utah.edu/sys/installdir/gaussian16/C01/AVX/g16/l502.exe)
 Integral symmetry usage will be decided dynamically.
 Closed shell SCF:
 Using DIIS extrapolation, IDIIS=  1040.
 NGot=  2097152000 LenX=  2097041417 LenY=  2096988992
 Requested convergence on RMS density matrix=1.00D-08 within 128 cycles.
 Requested convergence on MAX density matrix=1.00D-06.
 Requested convergence on             energy=1.00D-06.
 No special actions if energy rises.
 Fock matrices will be formed incrementally for  20 cycles.
 Integral accuracy reduced to 1.0D-05 until final iterations.

 Cycle   1  Pass 0  IDiag  1:
 FoFJK:  IHMeth= 1 ICntrl=       0 DoSepK=F KAlg= 0 I1Cent=           0 FoldK=F
 IRaf= 870000000 NMat=       1 IRICut=       1 DoRegI=T DoRafI=F ISym2E= 0 IDoP0=0 IntGTp=1.
 FoFCou: FMM=F IPFlag=           0 FMFlag=      100000 FMFlg1=           0
         NFxFlg=           0 DoJE=F BraDBF=F KetDBF=F FulRan=T
         wScrn=  0.000000 ICntrl=         0 IOpCl=  0 I1Cent=           0 NGrid=           0
         NMat0=    1 NMatS0=      1 NMatT0=    0 NMatD0=    1 NMtDS0=    0 NMtDT0=    0
 Symmetry not used in FoFCou.
 E= -1065.96358798959    
 DIIS: error= 1.03D-01 at cycle   1 NSaved=   1.
 NSaved= 1 IEnMin= 1 EnMin= -1065.96358798959     IErMin= 1 ErrMin= 1.03D-01
 ErrMax= 1.03D-01  0.00D+00 EMaxC= 1.00D-01 BMatC= 1.01D+00 BMatP= 1.01D+00
 IDIUse=3 WtCom= 0.00D+00 WtEn= 1.00D+00
 Coeff-Com:  0.100D+01
 Coeff-En:   0.100D+01
 Coeff:      0.100D+01
 Gap=     0.314 Goal=   None    Shift=    0.000
 GapD=    0.314 DampG=1.000 DampE=0.250 DampFc=0.2500 IDamp=-1.
 Damping current iteration by 2.50D-01
 RMSDP=7.98D-03 MaxDP=5.94D-01              OVMax= 3.19D-01

 Cycle   2  Pass 0  IDiag  1:
 RMSU=  1.99D-03    CP:  1.00D+00
 E= -1066.08308452607     Delta-E=       -0.119496536480 Rises=F Damp=T
 DIIS: error= 6.99D-02 at cycle   2 NSaved=   2.
 NSaved= 2 IEnMin= 2 EnMin= -1066.08308452607     IErMin= 2 ErrMin= 6.99D-02
 ErrMax= 6.99D-02  0.00D+00 EMaxC= 1.00D-01 BMatC= 4.26D-01 BMatP= 1.01D+00
 IDIUse=3 WtCom= 3.01D-01 WtEn= 6.99D-01
 Coeff-Com: -0.119D+01 0.219D+01
 Coeff-En:   0.000D+00 0.100D+01
 Coeff:     -0.358D+00 0.136D+01
 Gap=     0.272 Goal=   None    Shift=    0.000
 RMSDP=3.51D-03 MaxDP=1.51D-01 DE=-1.19D-01 OVMax= 1.65D-01

 Cycle   3  Pass 0  IDiag  1:
 RMSU=  2.41D-03    CP:  1.00D+00  2.28D+00
 E= -1066.30994028872     Delta-E=       -0.226855762651 Rises=F Damp=F
 DIIS: error= 1.58D-02 at cycle   3 NSaved=   3.
 NSaved= 3 IEnMin= 3 EnMin= -1066.30994028872     IErMin= 3 ErrMin= 1.58D-02
 ErrMax= 1.58D-02  0.00D+00 EMaxC= 1.00D-01 BMatC= 3.54D-02 BMatP= 4.26D-01
 IDIUse=3 WtCom= 8.42D-01 WtEn= 1.58D-01
 Coeff-Com: -0.276D+00 0.530D+00 0.747D+00
 Coeff-En:   0.000D+00 0.000D+00 0.100D+01
 Coeff:     -0.233D+00 0.446D+00 0.787D+00
 Gap=     0.226 Goal=   None    Shift=    0.000
 RMSDP=1.47D-03 MaxDP=6.36D-02 DE=-2.27D-01 OVMax= 6.05D-02

 Cycle   4  Pass 0  IDiag  1:
 RMSU=  1.10D-03    CP:  1.00D+00  2.07D+00  6.36D-01
 E= -1066.31977924299     Delta-E=       -0.009838954270 Rises=F Damp=F
 DIIS: error= 1.07D-02 at cycle   4 NSaved=   4.
 NSaved= 4 IEnMin= 4 EnMin= -1066.31977924299     IErMin= 4 ErrMin= 1.07D-02
 ErrMax= 1.07D-02  0.00D+00 EMaxC= 1.00D-01 BMatC= 2.11D-02 BMatP= 3.54D-02
 IDIUse=3 WtCom= 8.93D-01 WtEn= 1.07D-01
 Coeff-Com: -0.351D-01 0.757D-01 0.440D+00 0.519D+00
 Coeff-En:   0.000D+00 0.000D+00 0.401D+00 0.599D+00
 Coeff:     -0.314D-01 0.677D-01 0.436D+00 0.527D+00
 Gap=     0.232 Goal=   None    Shift=    0.000
 RMSDP=7.55D-04 MaxDP=2.32D-02 DE=-9.84D-03 OVMax= 3.16D-02

 Cycle   5  Pass 0  IDiag  1:
 RMSU=  3.59D-04    CP:  9.99D-01  2.13D+00  7.90D-01  5.14D-01
 E= -1066.33531415396     Delta-E=       -0.015534910965 Rises=F Damp=F
 DIIS: error= 4.75D-03 at cycle   5 NSaved=   5.
 NSaved= 5 IEnMin= 5 EnMin= -1066.33531415396     IErMin= 5 ErrMin= 4.75D-03
 ErrMax= 4.75D-03  0.00D+00 EMaxC= 1.00D-01 BMatC= 2.28D-03 BMatP= 2.11D-02
 IDIUse=3 WtCom= 9.53D-01 WtEn= 4.75D-02
 Coeff-Com: -0.120D-01 0.282D-01 0.263D+00 0.358D+00 0.363D+00
 Coeff-En:   0.000D+00 0.000D+00 0.000D+00 0.191D-01 0.981D+00
 Coeff:     -0.114D-01 0.268D-01 0.250D+00 0.342D+00 0.393D+00
 Gap=     0.217 Goal=   None    Shift=    0.000
 RMSDP=2.48D-04 MaxDP=1.09D-02 DE=-1.55D-02 OVMax= 1.69D-02

 Cycle   6  Pass 0  IDiag  1:
 RMSU=  1.14D-04    CP:  1.00D+00  2.13D+00  7.78D-01  5.56D-01  4.10D-01
 E= -1066.33712260418     Delta-E=       -0.001808450221 Rises=F Damp=F
 DIIS: error= 1.56D-03 at cycle   6 NSaved=   6.
 NSaved= 6 IEnMin= 6 EnMin= -1066.33712260418     IErMin= 6 ErrMin= 1.56D-03
 ErrMax= 1.56D-03  0.00D+00 EMaxC= 1.00D-01 BMatC= 2.20D-04 BMatP= 2.28D-03
 IDIUse=3 WtCom= 9.84D-01 WtEn= 1.56D-02
 Coeff-Com: -0.185D-02 0.527D-02 0.978D-01 0.146D+00 0.261D+00 0.492D+00
 Coeff-En:   0.000D+00 0.000D+00 0.000D+00 0.000D+00 0.939D-01 0.906D+00
 Coeff:     -0.182D-02 0.519D-02 0.963D-01 0.144D+00 0.258D+00 0.498D+00
 Gap=     0.217 Goal=   None    Shift=    0.000
 RMSDP=7.73D-05 MaxDP=3.70D-03 DE=-1.81D-03 OVMax= 4.67D-03

 Cycle   7  Pass 0  IDiag  1:
 RMSU=  4.07D-05    CP:  1.00D+00  2.14D+00  7.83D-01  5.63D-01  4.96D-01
                    CP:  5.25D-01
 E= -1066.33729608502     Delta-E=       -0.000173480845 Rises=F Damp=F
 DIIS: error= 2.58D-04 at cycle   7 NSaved=   7.
 NSaved= 7 IEnMin= 7 EnMin= -1066.33729608502     IErMin= 7 ErrMin= 2.58D-04
 ErrMax= 2.58D-04  0.00D+00 EMaxC= 1.00D-01 BMatC= 1.83D-05 BMatP= 2.20D-04
 IDIUse=3 WtCom= 9.97D-01 WtEn= 2.58D-03
 Coeff-Com: -0.401D-04 0.327D-03 0.240D-01 0.398D-01 0.106D+00 0.307D+00
 Coeff-Com:  0.523D+00
 Coeff-En:   0.000D+00 0.000D+00 0.000D+00 0.000D+00 0.000D+00 0.553D-01
 Coeff-En:   0.945D+00
 Coeff:     -0.400D-04 0.326D-03 0.239D-01 0.397D-01 0.106D+00 0.306D+00
 Coeff:      0.524D+00
 Gap=     0.217 Goal=   None    Shift=    0.000
 RMSDP=2.38D-05 MaxDP=6.73D-04 DE=-1.73D-04 OVMax= 1.64D-03

 Cycle   8  Pass 0  IDiag  1:
 RMSU=  1.35D-05    CP:  1.00D+00  2.14D+00  7.85D-01  5.63D-01  4.98D-01
                    CP:  5.93D-01  5.90D-01
 E= -1066.33731127637     Delta-E=       -0.000015191343 Rises=F Damp=F
 DIIS: error= 6.57D-05 at cycle   8 NSaved=   8.
 NSaved= 8 IEnMin= 8 EnMin= -1066.33731127637     IErMin= 8 ErrMin= 6.57D-05
 ErrMax= 6.57D-05  0.00D+00 EMaxC= 1.00D-01 BMatC= 1.58D-06 BMatP= 1.83D-05
 IDIUse=1 WtCom= 1.00D+00 WtEn= 0.00D+00
 Coeff-Com: -0.169D-03 0.197D-03 0.469D-02 0.927D-02 0.362D-01 0.127D+00
 Coeff-Com:  0.305D+00 0.517D+00
 Coeff:     -0.169D-03 0.197D-03 0.469D-02 0.927D-02 0.362D-01 0.127D+00
 Coeff:      0.305D+00 0.517D+00
 Gap=     0.217 Goal=   None    Shift=    0.000
 RMSDP=7.55D-06 MaxDP=1.98D-04 DE=-1.52D-05 OVMax= 4.83D-04

 Initial convergence to 1.0D-05 achieved.  Increase integral accuracy.
 Cycle   9  Pass 1  IDiag  1:
 E= -1066.33732761235     Delta-E=       -0.000016335981 Rises=F Damp=F
 DIIS: error= 2.38D-05 at cycle   1 NSaved=   1.
 NSaved= 1 IEnMin= 1 EnMin= -1066.33732761235     IErMin= 1 ErrMin= 2.38D-05
 ErrMax= 2.38D-05  0.00D+00 EMaxC= 1.00D-01 BMatC= 2.37D-07 BMatP= 2.37D-07
 IDIUse=1 WtCom= 1.00D+00 WtEn= 0.00D+00
 Coeff-Com:  0.100D+01
 Coeff:      0.100D+01
 Gap=     0.217 Goal=   None    Shift=    0.000
 RMSDP=7.55D-06 MaxDP=1.98D-04 DE=-1.63D-05 OVMax= 2.72D-04

 Cycle  10  Pass 1  IDiag  1:
 RMSU=  1.54D-05    CP:  1.00D+00
 E= -1066.33732743285     Delta-E=        0.000000179493 Rises=F Damp=F
 DIIS: error= 3.08D-05 at cycle   2 NSaved=   2.
 NSaved= 2 IEnMin= 1 EnMin= -1066.33732761235     IErMin= 1 ErrMin= 2.38D-05
 ErrMax= 3.08D-05  0.00D+00 EMaxC= 1.00D-01 BMatC= 4.11D-07 BMatP= 2.37D-07
 IDIUse=1 WtCom= 1.00D+00 WtEn= 0.00D+00
 Coeff-Com:  0.579D+00 0.421D+00
 Coeff:      0.579D+00 0.421D+00
 Gap=     0.217 Goal=   None    Shift=    0.000
 RMSDP=3.40D-06 MaxDP=1.37D-04 DE= 1.79D-07 OVMax= 2.35D-04

 Cycle  11  Pass 1  IDiag  1:
 RMSU=  3.32D-06    CP:  1.00D+00  9.56D-01
 E= -1066.33732777451     Delta-E=       -0.000000341658 Rises=F Damp=F
 DIIS: error= 1.04D-05 at cycle   3 NSaved=   3.
 NSaved= 3 IEnMin= 3 EnMin= -1066.33732777451     IErMin= 3 ErrMin= 1.04D-05
 ErrMax= 1.04D-05  0.00D+00 EMaxC= 1.00D-01 BMatC= 2.51D-08 BMatP= 2.37D-07
 IDIUse=1 WtCom= 1.00D+00 WtEn= 0.00D+00
 Coeff-Com:  0.753D-01 0.205D+00 0.720D+00
 Coeff:      0.753D-01 0.205D+00 0.720D+00
 Gap=     0.217 Goal=   None    Shift=    0.000
 RMSDP=1.07D-06 MaxDP=4.30D-05 DE=-3.42D-07 OVMax= 8.25D-05

 Cycle  12  Pass 1  IDiag  1:
 RMSU=  7.02D-07    CP:  1.00D+00  9.71D-01  7.69D-01
 E= -1066.33732779020     Delta-E=       -0.000000015693 Rises=F Damp=F
 DIIS: error= 7.83D-06 at cycle   4 NSaved=   4.
 NSaved= 4 IEnMin= 4 EnMin= -1066.33732779020     IErMin= 4 ErrMin= 7.83D-06
 ErrMax= 7.83D-06  0.00D+00 EMaxC= 1.00D-01 BMatC= 9.27D-09 BMatP= 2.51D-08
 IDIUse=1 WtCom= 1.00D+00 WtEn= 0.00D+00
 Coeff-Com:  0.466D-02 0.107D+00 0.497D+00 0.392D+00
 Coeff:      0.466D-02 0.107D+00 0.497D+00 0.392D+00
 Gap=     0.217 Goal=   None    Shift=    0.000
 RMSDP=4.64D-07 MaxDP=1.35D-05 DE=-1.57D-08 OVMax= 2.71D-05

 Cycle  13  Pass 1  IDiag  1:
 RMSU=  1.92D-07    CP:  1.00D+00  9.73D-01  8.08D-01  4.30D-01
 E= -1066.33732779826     Delta-E=       -0.000000008051 Rises=F Damp=F
 DIIS: error= 1.94D-06 at cycle   5 NSaved=   5.
 NSaved= 5 IEnMin= 5 EnMin= -1066.33732779826     IErMin= 5 ErrMin= 1.94D-06
 ErrMax= 1.94D-06  0.00D+00 EMaxC= 1.00D-01 BMatC= 5.20D-10 BMatP= 9.27D-09
 IDIUse=1 WtCom= 1.00D+00 WtEn= 0.00D+00
 Coeff-Com: -0.181D-02 0.572D-01 0.282D+00 0.255D+00 0.407D+00
 Coeff:     -0.181D-02 0.572D-01 0.282D+00 0.255D+00 0.407D+00
 Gap=     0.217 Goal=   None    Shift=    0.000
 RMSDP=1.21D-07 MaxDP=6.50D-06 DE=-8.05D-09 OVMax= 7.47D-06

 Cycle  14  Pass 1  IDiag  1:
 RMSU=  6.50D-08    CP:  1.00D+00  9.74D-01  8.10D-01  4.37D-01  4.77D-01
 E= -1066.33732779869     Delta-E=       -0.000000000430 Rises=F Damp=F
 DIIS: error= 5.21D-07 at cycle   6 NSaved=   6.
 NSaved= 6 IEnMin= 6 EnMin= -1066.33732779869     IErMin= 6 ErrMin= 5.21D-07
 ErrMax= 5.21D-07  0.00D+00 EMaxC= 1.00D-01 BMatC= 3.76D-11 BMatP= 5.20D-10
 IDIUse=1 WtCom= 1.00D+00 WtEn= 0.00D+00
 Coeff-Com: -0.153D-02 0.270D-01 0.136D+00 0.126D+00 0.258D+00 0.455D+00
 Coeff:     -0.153D-02 0.270D-01 0.136D+00 0.126D+00 0.258D+00 0.455D+00
 Gap=     0.217 Goal=   None    Shift=    0.000
 RMSDP=2.91D-08 MaxDP=1.06D-06 DE=-4.30D-10 OVMax= 1.63D-06

 Cycle  15  Pass 1  IDiag  1:
 RMSU=  1.91D-08    CP:  1.00D+00  9.74D-01  8.10D-01  4.40D-01  5.14D-01
                    CP:  6.85D-01
 E= -1066.33732779872     Delta-E=       -0.000000000037 Rises=F Damp=F
 DIIS: error= 9.33D-08 at cycle   7 NSaved=   7.
 NSaved= 7 IEnMin= 7 EnMin= -1066.33732779872     IErMin= 7 ErrMin= 9.33D-08
 ErrMax= 9.33D-08  0.00D+00 EMaxC= 1.00D-01 BMatC= 1.84D-12 BMatP= 3.76D-11
 IDIUse=1 WtCom= 1.00D+00 WtEn= 0.00D+00
 Coeff-Com: -0.595D-03 0.740D-02 0.385D-01 0.350D-01 0.870D-01 0.228D+00
 Coeff-Com:  0.605D+00
 Coeff:     -0.595D-03 0.740D-02 0.385D-01 0.350D-01 0.870D-01 0.228D+00
 Coeff:      0.605D+00
 Gap=     0.217 Goal=   None    Shift=    0.000
 RMSDP=9.14D-09 MaxDP=2.20D-07 DE=-3.73D-11 OVMax= 4.83D-07

 SCF Done:  E(RAPFD) =  -1066.33732780     A.U. after   15 cycles
            NFock= 15  Conv=0.91D-08     -V/T= 2.0068
 KE= 1.059187085600D+03 PE=-4.552978414825D+03 EE= 1.403670107254D+03
 Leave Link  502 at Fri Oct  4 20:00:46 2024, MaxMem=  2097152000 cpu:             185.1 elap:              11.6
 (Enter /uufs/chpc.utah.edu/sys/installdir/gaussian16/C01/AVX/g16/l601.exe)
 Copying SCF densities to generalized density rwf, IOpCl= 0 IROHF=0.

 **********************************************************************

            Population analysis using the SCF Density.

 **********************************************************************

 Orbital symmetries:
       Occupied  (A) (A) (A) (A) (A) (A) (A) (A) (A) (A) (A) (A)
                 (A) (A) (A) (A) (A) (A) (A) (A) (A) (A) (A) (A)
                 (A) (A) (A) (A) (A) (A) (A) (A) (A) (A) (A) (A)
                 (A) (A) (A) (A) (A) (A) (A) (A) (A) (A) (A) (A)
                 (A) (A) (A) (A) (A) (A) (A)
       Virtual   (A) (A) (A) (A) (A) (A) (A) (A) (A) (A) (A) (A)
                 (A) (A) (A) (A) (A) (A) (A) (A) (A) (A) (A) (A)
                 (A) (A) (A) (A) (A) (A) (A) (A) (A) (A) (A) (A)
                 (A) (A) (A) (A) (A) (A) (A) (A) (A) (A) (A) (A)
                 (A) (A) (A) (A) (A) (A) (A) (A) (A) (A) (A) (A)
                 (A) (A) (A) (A) (A) (A) (A) (A) (A) (A) (A) (A)
                 (A) (A) (A) (A) (A) (A) (A) (A) (A) (A) (A) (A)
                 (A) (A) (A) (A) (A) (A) (A) (A) (A) (A) (A) (A)
                 (A) (A) (A) (A) (A) (A) (A) (A) (A) (A) (A) (A)
                 (A) (A) (A) (A) (A) (A) (A) (A) (A) (A) (A) (A)
                 (A) (A) (A) (A) (A) (A) (A) (A) (A) (A) (A) (A)
                 (A) (A) (A) (A) (A) (A) (A) (A) (A) (A) (A) (A)
                 (A) (A) (A) (A) (A) (A) (A) (A) (A) (A) (A) (A)
                 (A) (A) (A) (A) (A) (A) (A) (A) (A) (A) (A) (A)
                 (A) (A) (A) (A) (A)
 The electronic state is 1-A.
 Alpha  occ. eigenvalues --  -89.24394 -24.80169 -19.21732 -19.21726 -14.42129
 Alpha  occ. eigenvalues --  -14.39479 -10.33322 -10.30597 -10.30586 -10.29877
 Alpha  occ. eigenvalues --  -10.27529 -10.26744 -10.24747 -10.23739  -8.22220
 Alpha  occ. eigenvalues --   -6.17179  -6.16774  -6.16744  -1.29392  -1.13820
 Alpha  occ. eigenvalues --   -1.05522  -1.01385  -0.94706  -0.89285  -0.86306
 Alpha  occ. eigenvalues --   -0.78652  -0.75564  -0.75107  -0.66616  -0.65857
 Alpha  occ. eigenvalues --   -0.60556  -0.59091  -0.56419  -0.53475  -0.52225
 Alpha  occ. eigenvalues --   -0.49685  -0.49240  -0.47158  -0.46658  -0.45776
 Alpha  occ. eigenvalues --   -0.44979  -0.44334  -0.43415  -0.43214  -0.41131
 Alpha  occ. eigenvalues --   -0.39530  -0.39031  -0.38677  -0.36665  -0.35956
 Alpha  occ. eigenvalues --   -0.35682  -0.33622  -0.32208  -0.31423  -0.30265
 Alpha virt. eigenvalues --   -0.08584  -0.07747  -0.00852   0.01312   0.04442
 Alpha virt. eigenvalues --    0.06992   0.07821   0.09600   0.10606   0.10832
 Alpha virt. eigenvalues --    0.11445   0.13726   0.15741   0.16407   0.16851
 Alpha virt. eigenvalues --    0.16988   0.19669   0.21157   0.22426   0.24230
 Alpha virt. eigenvalues --    0.28127   0.31118   0.32332   0.33140   0.33903
 Alpha virt. eigenvalues --    0.36401   0.39664   0.42905   0.44813   0.46588
 Alpha virt. eigenvalues --    0.48120   0.50231   0.50432   0.52097   0.53790
 Alpha virt. eigenvalues --    0.53880   0.55574   0.57645   0.58721   0.60298
 Alpha virt. eigenvalues --    0.60369   0.63356   0.65030   0.67215   0.67363
 Alpha virt. eigenvalues --    0.69216   0.71582   0.71777   0.73591   0.74735
 Alpha virt. eigenvalues --    0.76351   0.76653   0.79893   0.80528   0.82456
 Alpha virt. eigenvalues --    0.82559   0.83851   0.84584   0.85591   0.86262
 Alpha virt. eigenvalues --    0.87762   0.89197   0.90480   0.90907   0.91522
 Alpha virt. eigenvalues --    0.92771   0.95295   0.95873   0.98389   1.01110
 Alpha virt. eigenvalues --    1.02177   1.02898   1.04711   1.05009   1.08381
 Alpha virt. eigenvalues --    1.10213   1.15543   1.15757   1.16710   1.18493
 Alpha virt. eigenvalues --    1.20032   1.24797   1.25984   1.27377   1.28367
 Alpha virt. eigenvalues --    1.33361   1.33968   1.34519   1.37646   1.39356
 Alpha virt. eigenvalues --    1.41581   1.45436   1.45658   1.47186   1.49854
 Alpha virt. eigenvalues --    1.49951   1.56010   1.58484   1.63631   1.64810
 Alpha virt. eigenvalues --    1.69172   1.71476   1.73588   1.74966   1.76364
 Alpha virt. eigenvalues --    1.77497   1.77874   1.78640   1.80573   1.82045
 Alpha virt. eigenvalues --    1.83195   1.84188   1.84207   1.85193   1.85888
 Alpha virt. eigenvalues --    1.86826   1.89195   1.90460   1.92645   1.93618
 Alpha virt. eigenvalues --    1.93836   1.97856   1.99790   2.01573   2.06223
 Alpha virt. eigenvalues --    2.10915   2.12193   2.12843   2.13426   2.16565
 Alpha virt. eigenvalues --    2.17972   2.21776   2.22515   2.24613   2.26441
 Alpha virt. eigenvalues --    2.28187   2.28295   2.29841   2.32315   2.34206
 Alpha virt. eigenvalues --    2.37678   2.41157   2.45692   2.56977   2.63288
 Alpha virt. eigenvalues --    2.63677   2.66275   2.69311   2.76350   2.78505
 Alpha virt. eigenvalues --    2.79337   2.80544   2.81402   2.83464   2.86950
 Alpha virt. eigenvalues --    2.95807   3.19252   3.23174   3.42564   3.78165
 Alpha virt. eigenvalues --    3.92064   3.96248   4.04190   4.08061   4.14724
 Alpha virt. eigenvalues --    4.17904   4.21549   4.27823   4.33984   4.36906
 Alpha virt. eigenvalues --    4.51039   4.59918   4.78534
          Condensed to atoms (all electrons):
               1          2          3          4          5          6
     1  C    5.266197   0.357096  -0.069345   0.003732  -0.000225   0.001622
     2  C    0.357096   4.642934   0.497074  -0.031868   0.006307  -0.030622
     3  C   -0.069345   0.497074   5.095470   0.527659  -0.059535  -0.017330
     4  C    0.003732  -0.031868   0.527659   4.704865   0.352410   0.515846
     5  C   -0.000225   0.006307  -0.059535   0.352410   5.273371  -0.062699
     6  C    0.001622  -0.030622  -0.017330   0.515846  -0.062699   5.057957
     7  C    0.000013   0.001080   0.008986  -0.060015  -0.018886   0.198380
     8  N   -0.000000   0.000013  -0.000065  -0.002067  -0.000350  -0.097538
     9  C    0.005779  -0.044324  -0.060957  -0.029145   0.010206   0.374371
    10  S   -0.000314  -0.000508  -0.000036   0.003354   0.000013  -0.025351
    11  F    0.000003   0.000319  -0.000005  -0.000007   0.000000   0.000993
    12  O    0.000000  -0.000148  -0.000001   0.000068   0.000002  -0.001667
    13  O    0.000000  -0.000150  -0.000002   0.000083   0.000002  -0.001061
    14  N   -0.085308   0.405851  -0.030592  -0.049763   0.000026  -0.011522
    15  H    0.368526  -0.034441   0.001280   0.000513  -0.000004  -0.000011
    16  H    0.366247  -0.024549   0.001535  -0.000131   0.000003  -0.000021
    17  H    0.366488  -0.024676   0.001262  -0.000136   0.000003  -0.000018
    18  H   -0.002741  -0.031323   0.353835  -0.034435  -0.007331   0.005513
    19  H   -0.000008   0.000413  -0.002736  -0.031269   0.369711   0.004069
    20  H    0.000003  -0.000170   0.000965  -0.026743   0.368379  -0.004878
    21  H    0.000003  -0.000174   0.000965  -0.026936   0.368769  -0.004824
               7          8          9         10         11         12
     1  C    0.000013  -0.000000   0.005779  -0.000314   0.000003   0.000000
     2  C    0.001080   0.000013  -0.044324  -0.000508   0.000319  -0.000148
     3  C    0.008986  -0.000065  -0.060957  -0.000036  -0.000005  -0.000001
     4  C   -0.060015  -0.002067  -0.029145   0.003354  -0.000007   0.000068
     5  C   -0.018886  -0.000350   0.010206   0.000013   0.000000   0.000002
     6  C    0.198380  -0.097538   0.374371  -0.025351   0.000993  -0.001667
     7  C    4.825168   0.827070  -0.058458   0.001857  -0.000038  -0.000669
     8  N    0.827070   6.736726  -0.001749   0.001240  -0.000000  -0.001379
     9  C   -0.058458  -0.001749   5.432850   0.180899  -0.029682  -0.048219
    10  S    0.001857   0.001240   0.180899  13.461487   0.224698   0.445867
    11  F   -0.000038  -0.000000  -0.029682   0.224698   9.136038  -0.036259
    12  O   -0.000669  -0.001379  -0.048219   0.445867  -0.036259   8.158271
    13  O   -0.001226  -0.001302  -0.048963   0.446779  -0.036295  -0.039154
    14  N    0.005235  -0.000024   0.339912  -0.021685   0.003094  -0.000228
    15  H   -0.000000   0.000000  -0.000215   0.000003  -0.000000  -0.000000
    16  H   -0.000000  -0.000000   0.000066   0.000024  -0.000000   0.000000
    17  H   -0.000000  -0.000000   0.000064   0.000023  -0.000000  -0.000000
    18  H   -0.000042  -0.000000   0.000117  -0.000001  -0.000000  -0.000000
    19  H    0.000550   0.000031  -0.000195  -0.000001  -0.000000  -0.000000
    20  H    0.002612   0.000247  -0.000066   0.000004  -0.000000  -0.000000
    21  H    0.002466   0.000218  -0.000058   0.000005  -0.000000   0.000000
              13         14         15         16         17         18
     1  C    0.000000  -0.085308   0.368526   0.366247   0.366488  -0.002741
     2  C   -0.000150   0.405851  -0.034441  -0.024549  -0.024676  -0.031323
     3  C   -0.000002  -0.030592   0.001280   0.001535   0.001262   0.353835
     4  C    0.000083  -0.049763   0.000513  -0.000131  -0.000136  -0.034435
     5  C    0.000002   0.000026  -0.000004   0.000003   0.000003  -0.007331
     6  C   -0.001061  -0.011522  -0.000011  -0.000021  -0.000018   0.005513
     7  C   -0.001226   0.005235  -0.000000  -0.000000  -0.000000  -0.000042
     8  N   -0.001302  -0.000024   0.000000  -0.000000  -0.000000  -0.000000
     9  C   -0.048963   0.339912  -0.000215   0.000066   0.000064   0.000117
    10  S    0.446779  -0.021685   0.000003   0.000024   0.000023  -0.000001
    11  F   -0.036295   0.003094  -0.000000  -0.000000  -0.000000  -0.000000
    12  O   -0.039154  -0.000228  -0.000000   0.000000  -0.000000  -0.000000
    13  O    8.158100  -0.000275  -0.000000  -0.000000   0.000000  -0.000000
    14  N   -0.000275   6.927988   0.003783  -0.001238  -0.001471   0.004357
    15  H   -0.000000   0.003783   0.517889  -0.024420  -0.024445   0.002945
    16  H   -0.000000  -0.001238  -0.024420   0.482707  -0.019699  -0.000002
    17  H    0.000000  -0.001471  -0.024445  -0.019699   0.483046   0.000009
    18  H   -0.000000   0.004357   0.002945  -0.000002   0.000009   0.508949
    19  H   -0.000000   0.000000   0.000000   0.000000   0.000000   0.005108
    20  H    0.000000   0.000009   0.000000  -0.000000   0.000000   0.000097
    21  H   -0.000000   0.000009   0.000000   0.000000  -0.000000   0.000099
              19         20         21
     1  C   -0.000008   0.000003   0.000003
     2  C    0.000413  -0.000170  -0.000174
     3  C   -0.002736   0.000965   0.000965
     4  C   -0.031269  -0.026743  -0.026936
     5  C    0.369711   0.368379   0.368769
     6  C    0.004069  -0.004878  -0.004824
     7  C    0.000550   0.002612   0.002466
     8  N    0.000031   0.000247   0.000218
     9  C   -0.000195  -0.000066  -0.000058
    10  S   -0.000001   0.000004   0.000005
    11  F   -0.000000  -0.000000  -0.000000
    12  O   -0.000000  -0.000000   0.000000
    13  O   -0.000000   0.000000  -0.000000
    14  N    0.000000   0.000009   0.000009
    15  H    0.000000   0.000000   0.000000
    16  H    0.000000  -0.000000   0.000000
    17  H    0.000000   0.000000  -0.000000
    18  H    0.005108   0.000097   0.000099
    19  H    0.503540  -0.024331  -0.024486
    20  H   -0.024331   0.480555  -0.021441
    21  H   -0.024486  -0.021441   0.480722
 Mulliken charges:
               1
     1  C   -0.577766
     2  C    0.311866
     3  C   -0.248426
     4  C    0.183984
     5  C   -0.600170
     6  C    0.098792
     7  C    0.265918
     8  N   -0.461069
     9  C   -0.022233
    10  S    1.281641
    11  F   -0.262858
    12  O   -0.476483
    13  O   -0.476535
    14  N   -0.488159
    15  H    0.188596
    16  H    0.219478
    17  H    0.219551
    18  H    0.194847
    19  H    0.199603
    20  H    0.224760
    21  H    0.224664
 Sum of Mulliken charges =  -0.00000
 Mulliken charges with hydrogens summed into heavy atoms:
               1
     1  C    0.049859
     2  C    0.311866
     3  C   -0.053579
     4  C    0.183984
     5  C    0.048856
     6  C    0.098792
     7  C    0.265918
     8  N   -0.461069
     9  C   -0.022233
    10  S    1.281641
    11  F   -0.262858
    12  O   -0.476483
    13  O   -0.476535
    14  N   -0.488159
 Electronic spatial extent (au):  <R**2>=           2919.0146
 Charge=             -0.0000 electrons
 Dipole moment (field-independent basis, Debye):
    X=             -8.2642    Y=             -2.4023    Z=              0.0211  Tot=              8.6063
 Quadrupole moment (field-independent basis, Debye-Ang):
   XX=            -79.8497   YY=            -89.7134   ZZ=            -89.1181
   XY=             -4.3640   XZ=              0.0094   YZ=              0.1838
 Traceless Quadrupole moment (field-independent basis, Debye-Ang):
   XX=              6.3773   YY=             -3.4864   ZZ=             -2.8910
   XY=             -4.3640   XZ=              0.0094   YZ=              0.1838
 Octapole moment (field-independent basis, Debye-Ang**2):
  XXX=            -27.1007  YYY=            -61.5786  ZZZ=             -0.0862  XYY=            -24.5812
  XXY=            -13.8650  XXZ=              0.2081  XZZ=              2.1306  YZZ=             -6.5542
  YYZ=              0.4926  XYZ=             -0.0716
 Hexadecapole moment (field-independent basis, Debye-Ang**3):
 XXXX=          -1880.5882 YYYY=          -1603.4551 ZZZZ=           -203.2256 XXXY=            -42.7682
 XXXZ=             -0.2480 YYYX=            -60.3300 YYYZ=              1.7500 ZZZX=              0.1934
 ZZZY=              0.3473 XXYY=           -538.5537 XXZZ=           -397.3439 YYZZ=           -267.3903
 XXYZ=              0.4744 YYXZ=              0.6882 ZZXY=            -14.3172
 N-N= 1.023783894172D+03 E-N=-4.552978423941D+03  KE= 1.059187085600D+03
 No NMR shielding tensors so no spin-rotation constants.
 Leave Link  601 at Fri Oct  4 20:00:46 2024, MaxMem=  2097152000 cpu:               1.9 elap:               0.2
 (Enter /uufs/chpc.utah.edu/sys/installdir/gaussian16/C01/AVX/g16/l701.exe)
 ... and contract with generalized density number  0.
 Compute integral first derivatives.
 R6APFD:  NTU= -4 IXU= 1 FactS= 1.050
 R6Disp: Adding Petersson-Frisch dispersion energy 1st derivatives to the gradient.
 Leave Link  701 at Fri Oct  4 20:00:46 2024, MaxMem=  2097152000 cpu:               2.0 elap:               0.1
 (Enter /uufs/chpc.utah.edu/sys/installdir/gaussian16/C01/AVX/g16/l702.exe)
 L702 exits ... SP integral derivatives will be done elsewhere.
 Leave Link  702 at Fri Oct  4 20:00:46 2024, MaxMem=  2097152000 cpu:               0.5 elap:               0.0
 (Enter /uufs/chpc.utah.edu/sys/installdir/gaussian16/C01/AVX/g16/l703.exe)
 Integral derivatives from FoFJK, PRISM(SPDF).
 Compute integral first derivatives, UseDBF=F ICtDFT=           0.
 Calling FoFJK, ICntrl=      2127 FMM=F ISym2X=0 I1Cent= 0 IOpClX= 0 NMat=1 NMatS=1 NMatT=0.
 FoFJK:  IHMeth= 1 ICntrl=    2127 DoSepK=F KAlg= 0 I1Cent=           0 FoldK=F
 IRaf=         0 NMat=       1 IRICut=       1 DoRegI=T DoRafI=F ISym2E= 0 IDoP0=0 IntGTp=1.
 FoFCou: FMM=F IPFlag=           0 FMFlag=      100000 FMFlg1=         800
         NFxFlg=           0 DoJE=F BraDBF=F KetDBF=F FulRan=T
         wScrn=  0.000000 ICntrl=      2127 IOpCl=  0 I1Cent=           0 NGrid=           0
         NMat0=    1 NMatS0=      1 NMatT0=    0 NMatD0=    1 NMtDS0=    0 NMtDT0=    0
 Symmetry not used in FoFCou.
 Leave Link  703 at Fri Oct  4 20:00:49 2024, MaxMem=  2097152000 cpu:              46.4 elap:               2.9
 (Enter /uufs/chpc.utah.edu/sys/installdir/gaussian16/C01/AVX/g16/l716.exe)
 Dipole        =-3.25140188D+00-9.45136192D-01 8.30983235D-03
 ***** Axes restored to original set *****
 -------------------------------------------------------------------
 Center     Atomic                   Forces (Hartrees/Bohr)
 Number     Number              X              Y              Z
 -------------------------------------------------------------------
      1        6           0.001957885    0.001284298    0.000484505
      2        6           0.001320234   -0.008411643   -0.000306570
      3        6           0.016560531   -0.005295212    0.000170242
      4        6          -0.014330765    0.015887242   -0.000102644
      5        6          -0.003141752   -0.002857098    0.000072520
      6        6           0.006493070    0.000980774   -0.000158111
      7        6          -0.007191212    0.001836706    0.000172838
      8        7           0.005122016    0.000843651    0.000037111
      9        6          -0.064349690   -0.012179027    0.000459444
     10       16           0.038136426   -0.011645182    0.000181919
     11        9          -0.011249574    0.009385101   -0.000229438
     12        8          -0.003977189    0.001656212    0.005723272
     13        8          -0.004049637    0.001440342   -0.005898483
     14        7           0.030613768    0.015297789   -0.000213299
     15        1           0.001175303   -0.000360680   -0.000088780
     16        1          -0.001143392   -0.002346983   -0.001421395
     17        1          -0.001269299   -0.002294389    0.001279334
     18        1           0.002158142   -0.000780186    0.000087820
     19        1          -0.000396436   -0.002446634   -0.000066876
     20        1           0.003819703    0.000064475    0.001905394
     21        1           0.003741868   -0.000059559   -0.002088802
 -------------------------------------------------------------------
 Cartesian Forces:  Max     0.064349690 RMS     0.011559742
 Leave Link  716 at Fri Oct  4 20:00:49 2024, MaxMem=  2097152000 cpu:               0.7 elap:               0.1
 (Enter /uufs/chpc.utah.edu/sys/installdir/gaussian16/C01/AVX/g16/l103.exe)

 GradGradGradGradGradGradGradGradGradGradGradGradGradGradGradGradGradGrad
 Berny optimization.
 FormGI is forming the generalized inverse of G from B-inverse, IUseBI=4.
 Internal  Forces:  Max     0.037048248 RMS     0.006545442
 Search for a local minimum.
 Step number   1 out of a maximum of  105
 All quantities printed in internal units (Hartrees-Bohrs-Radians)
 RMS Force = .65454D-02 SwitMx=.10000D-02 MixMth= 1
 Mixed Optimization -- RFO/linear search
 Second derivative matrix not updated -- first step.
 ITU=  0
     Eigenvalues ---    0.00692   0.00707   0.00767   0.01476   0.01571
     Eigenvalues ---    0.01595   0.02046   0.02094   0.02147   0.02209
     Eigenvalues ---    0.02243   0.04877   0.04877   0.07239   0.07242
     Eigenvalues ---    0.07262   0.07434   0.11281   0.12636   0.16000
     Eigenvalues ---    0.16000   0.16000   0.16000   0.16000   0.16000
     Eigenvalues ---    0.16000   0.23508   0.24999   0.25000   0.25000
     Eigenvalues ---    0.25000   0.25000   0.25000   0.25000   0.25000
     Eigenvalues ---    0.25000   0.28226   0.31801   0.32385   0.34210
     Eigenvalues ---    0.34255   0.34281   0.34290   0.34312   0.34318
     Eigenvalues ---    0.35050   0.40843   0.42498   0.42979   0.45531
     Eigenvalues ---    0.47509   0.50784   0.53743   0.53790   0.96018
     Eigenvalues ---    0.96081   1.28321
 RFO step:  Lambda=-1.23766834D-02 EMin= 6.92361156D-03
 Linear search not attempted -- first point.
 Iteration  1 RMS(Cart)=  0.04723004 RMS(Int)=  0.00211500
 Iteration  2 RMS(Cart)=  0.00229634 RMS(Int)=  0.00025513
 Iteration  3 RMS(Cart)=  0.00000482 RMS(Int)=  0.00025512
 Iteration  4 RMS(Cart)=  0.00000000 RMS(Int)=  0.00025512
 ITry= 1 IFail=0 DXMaxC= 2.86D-01 DCOld= 1.00D+10 DXMaxT= 3.00D-01 DXLimC= 3.00D+00 Rises=F
 Variable       Old X    -DE/DX   Delta X   Delta X   Delta X     New X
                                 (Linear)    (Quad)   (Total)
    R1        2.83445  -0.00051   0.00000  -0.00151  -0.00151   2.83294
    R2        2.06843  -0.00083   0.00000  -0.00232  -0.00232   2.06611
    R3        2.06797   0.00037   0.00000   0.00105   0.00105   2.06902
    R4        2.06807   0.00046   0.00000   0.00128   0.00128   2.06936
    R5        2.63358   0.00423   0.00000   0.00889   0.00891   2.64250
    R6        2.55204  -0.01132   0.00000  -0.02138  -0.02138   2.53067
    R7        2.65597  -0.01425   0.00000  -0.02940  -0.02938   2.62659
    R8        2.05594  -0.00182   0.00000  -0.00501  -0.00501   2.05092
    R9        2.84510  -0.00287   0.00000  -0.00869  -0.00869   2.83641
   R10        2.65424  -0.00059   0.00000   0.00022   0.00022   2.65446
   R11        2.06977  -0.00157   0.00000  -0.00444  -0.00444   2.06533
   R12        2.06859   0.00060   0.00000   0.00168   0.00168   2.07027
   R13        2.06901   0.00043   0.00000   0.00122   0.00122   2.07023
   R14        2.70424  -0.00209   0.00000  -0.00496  -0.00496   2.69927
   R15        2.61887   0.00935   0.00000   0.01876   0.01873   2.63761
   R16        2.19056   0.00513   0.00000   0.00396   0.00396   2.19453
   R17        3.35346   0.00776   0.00000   0.02635   0.02635   3.37981
   R18        2.57932  -0.03705   0.00000  -0.07101  -0.07103   2.50829
   R19        2.99924   0.00151   0.00000   0.00274   0.00274   3.00198
   R20        2.73951  -0.00707   0.00000  -0.00727  -0.00727   2.73224
   R21        2.73977  -0.00720   0.00000  -0.00741  -0.00741   2.73236
    A1        1.95083  -0.00119   0.00000  -0.00309  -0.00310   1.94773
    A2        1.91795   0.00138   0.00000   0.00622   0.00622   1.92417
    A3        1.91587   0.00147   0.00000   0.00651   0.00651   1.92238
    A4        1.88777   0.00074   0.00000   0.00824   0.00823   1.89600
    A5        1.88817   0.00060   0.00000   0.00696   0.00695   1.89512
    A6        1.90232  -0.00310   0.00000  -0.02563  -0.02562   1.87670
    A7        2.11110   0.00466   0.00000   0.01892   0.01890   2.13001
    A8        2.03939  -0.00466   0.00000  -0.01660  -0.01662   2.02278
    A9        2.13268   0.00001   0.00000  -0.00230  -0.00227   2.13040
   A10        2.09325   0.00213   0.00000   0.01281   0.01285   2.10610
   A11        2.09076   0.00037   0.00000   0.00194   0.00192   2.09268
   A12        2.09917  -0.00250   0.00000  -0.01475  -0.01477   2.08441
   A13        2.08471   0.01153   0.00000   0.04105   0.04104   2.12575
   A14        2.07418  -0.00843   0.00000  -0.02629  -0.02627   2.04791
   A15        2.12430  -0.00311   0.00000  -0.01476  -0.01477   2.10953
   A16        1.94503  -0.00247   0.00000  -0.00856  -0.00856   1.93648
   A17        1.92636   0.00192   0.00000   0.00820   0.00820   1.93456
   A18        1.92549   0.00187   0.00000   0.00810   0.00810   1.93359
   A19        1.87704   0.00140   0.00000   0.01348   0.01348   1.89053
   A20        1.87565   0.00151   0.00000   0.01450   0.01450   1.89015
   A21        1.91289  -0.00435   0.00000  -0.03628  -0.03627   1.87662
   A22        2.11973  -0.00530   0.00000  -0.02156  -0.02154   2.09819
   A23        2.03821   0.00175   0.00000   0.00937   0.00935   2.04756
   A24        2.12523   0.00355   0.00000   0.01219   0.01221   2.13744
   A25        2.11250  -0.00851   0.00000  -0.03105  -0.03103   2.08147
   A26        2.19085   0.00127   0.00000   0.00204   0.00200   2.19285
   A27        1.97982   0.00725   0.00000   0.02901   0.02903   2.00886
   A28        1.87459  -0.03526   0.00000  -0.14443  -0.14527   1.72932
   A29        1.87920   0.00287   0.00000   0.01658   0.01561   1.89481
   A30        1.87825   0.00274   0.00000   0.01613   0.01516   1.89341
   A31        1.83971   0.01015   0.00000   0.02657   0.02549   1.86520
   A32        1.83944   0.01018   0.00000   0.02672   0.02561   1.86506
   A33        2.13833   0.00271   0.00000   0.02871   0.02765   2.16598
   A34        2.03717   0.00328   0.00000   0.00438   0.00436   2.04153
   A35        3.16177   0.00163   0.00000   0.02665   0.02665   3.18842
   A36        3.12779  -0.00038   0.00000  -0.00619  -0.00619   3.12160
    D1       -0.02382   0.00009   0.00000   0.00208   0.00208  -0.02174
    D2        3.12274  -0.00002   0.00000  -0.00179  -0.00179   3.12096
    D3       -2.11989  -0.00100   0.00000  -0.01046  -0.01047  -2.13036
    D4        1.02668  -0.00111   0.00000  -0.01433  -0.01434   1.01234
    D5        2.07136   0.00105   0.00000   0.01319   0.01320   2.08456
    D6       -1.06526   0.00094   0.00000   0.00931   0.00932  -1.05593
    D7       -3.13219  -0.00013   0.00000  -0.00398  -0.00399  -3.13618
    D8        0.00803  -0.00009   0.00000  -0.00310  -0.00311   0.00492
    D9        0.00416  -0.00002   0.00000   0.00007   0.00008   0.00424
   D10       -3.13881   0.00002   0.00000   0.00095   0.00096  -3.13785
   D11        3.13170   0.00015   0.00000   0.00458   0.00455   3.13625
   D12       -0.00486   0.00002   0.00000   0.00059   0.00061  -0.00424
   D13       -3.13815  -0.00006   0.00000  -0.00266  -0.00268  -3.14084
   D14        0.00211  -0.00005   0.00000  -0.00202  -0.00203   0.00008
   D15        0.00482  -0.00011   0.00000  -0.00356  -0.00357   0.00125
   D16       -3.13810  -0.00010   0.00000  -0.00292  -0.00292  -3.14102
   D17        0.00482  -0.00004   0.00000  -0.00051  -0.00050   0.00432
   D18       -2.07962  -0.00146   0.00000  -0.01729  -0.01728  -2.09691
   D19        2.08694   0.00149   0.00000   0.01747   0.01748   2.10441
   D20       -3.13541  -0.00005   0.00000  -0.00116  -0.00117  -3.13658
   D21        1.06334  -0.00147   0.00000  -0.01794  -0.01796   1.04538
   D22       -1.05329   0.00148   0.00000   0.01681   0.01681  -1.03648
   D23        3.12972   0.00021   0.00000   0.00551   0.00549   3.13521
   D24       -0.00704   0.00012   0.00000   0.00315   0.00315  -0.00388
   D25       -0.01323   0.00023   0.00000   0.00622   0.00618  -0.00705
   D26        3.13320   0.00014   0.00000   0.00386   0.00384   3.13704
   D27       -3.13014  -0.00015   0.00000  -0.00421  -0.00420  -3.13435
   D28        0.00665  -0.00008   0.00000  -0.00255  -0.00257   0.00408
   D29        0.01630  -0.00021   0.00000  -0.00648  -0.00649   0.00981
   D30       -3.13010  -0.00014   0.00000  -0.00482  -0.00486  -3.13496
   D31        3.13821   0.00003   0.00000   0.00099   0.00100   3.13921
   D32       -1.17128  -0.00382   0.00000  -0.02979  -0.02969  -1.20097
   D33        1.16527   0.00387   0.00000   0.03163   0.03152   1.19678
   D34        0.00088  -0.00001   0.00000  -0.00043  -0.00042   0.00046
   D35        1.97457  -0.00387   0.00000  -0.03121  -0.03111   1.94346
   D36       -1.97206   0.00382   0.00000   0.03021   0.03010  -1.94196
   D37       -0.00069   0.00005   0.00000   0.00077   0.00074   0.00005
   D38        3.13642   0.00007   0.00000   0.00218   0.00217   3.13859
         Item               Value     Threshold  Converged?
 Maximum Force            0.037048     0.000450     NO 
 RMS     Force            0.006545     0.000300     NO 
 Maximum Displacement     0.285558     0.001800     NO 
 RMS     Displacement     0.047943     0.001200     NO 
 Predicted change in Energy=-6.475295D-03
 Lowest energy point so far.  Saving SCF results.
 GradGradGradGradGradGradGradGradGradGradGradGradGradGradGradGradGradGrad

 Leave Link  103 at Fri Oct  4 20:00:49 2024, MaxMem=  2097152000 cpu:               1.0 elap:               0.1
 (Enter /uufs/chpc.utah.edu/sys/installdir/gaussian16/C01/AVX/g16/l202.exe)
                          Input orientation:                          
 ---------------------------------------------------------------------
 Center     Atomic      Atomic             Coordinates (Angstroms)
 Number     Number       Type             X           Y           Z
 ---------------------------------------------------------------------
      1          6           0        1.159341   -0.075738    0.011760
      2          6           0        2.654021    0.039583    0.015430
      3          6           0        3.302546    1.278317   -0.002850
      4          6           0        4.690521    1.351991   -0.005350
      5          6           0        5.412625    2.667708   -0.023835
      6          6           0        5.400832    0.140248    0.011021
      7          6           0        6.829190    0.144064    0.001585
      8          7           0        7.988804    0.206023   -0.006160
      9          6           0        4.654863   -1.039237    0.033284
     10         16           0        5.506447   -2.611664    0.066145
     11          9           0        4.246417   -3.578859    0.087024
     12          8           0        6.163466   -2.806020   -1.207040
     13          8           0        6.163092   -2.750691    1.346821
     14          7           0        3.329779   -1.116404    0.035961
     15          1           0        0.679899    0.906863    0.015637
     16          1           0        0.820223   -0.633907    0.890512
     17          1           0        0.825534   -0.623399   -0.875814
     18          1           0        2.719937    2.193894   -0.015714
     19          1           0        4.705873    3.501346   -0.029877
     20          1           0        6.049930    2.750138   -0.911109
     21          1           0        6.057340    2.769754    0.855989
 ---------------------------------------------------------------------
                    Distance matrix (angstroms):
                    1          2          3          4          5
     1  C    0.000000
     2  C    1.499127   0.000000
     3  C    2.535154   1.398349   0.000000
     4  C    3.808929   2.422845   1.389931   0.000000
     5  C    5.061441   3.810311   2.526515   1.500962   0.000000
     6  C    4.246987   2.748658   2.387090   1.404681   2.527728
     7  C    5.674118   4.176499   3.704561   2.456225   2.894146
     8  N    6.835296   5.337422   4.807373   3.491691   3.563271
     9  C    3.625944   2.273223   2.683491   2.391806   3.784033
    10  S    5.033012   3.894614   4.471453   4.047395   5.280972
    11  F    4.669857   3.953982   4.948852   4.951671   6.355464
    12  O    5.829338   4.680608   5.129985   4.571944   5.650259
    13  O    5.828832   4.676730   5.122230   4.563861   5.639233
    14  N    2.407150   1.339170   2.395191   2.818919   4.319876
    15  H    1.093337   2.156232   2.648886   4.035303   5.049835
    16  H    1.094879   2.140602   3.258317   4.441348   5.729472
    17  H    1.095056   2.139446   3.242557   4.426963   5.709523
    18  H    2.754531   2.155544   1.085302   2.142921   2.734069
    19  H    5.037376   4.024419   2.629052   2.149551   1.092927
    20  H    5.723209   4.442721   3.246429   2.150164   1.095539
    21  H    5.727124   4.443304   3.248212   2.149454   1.095519
                    6          7          8          9         10
     6  C    0.000000
     7  C    1.428395   0.000000
     8  N    2.588865   1.161293   0.000000
     9  C    1.395761   2.475663   3.559128   0.000000
    10  S    2.754490   3.057427   3.755887   1.788520   0.000000
    11  F    3.894895   4.531907   5.323484   2.572819   1.588577
    12  O    3.278075   3.256833   3.721072   2.633592   1.445838
    13  O    3.274588   3.260821   3.729068   2.632339   1.445905
    14  N    2.422614   3.719657   4.843254   1.327332   2.640946
    15  H    4.782774   6.196438   7.342462   4.425829   5.973119
    16  H    4.728087   6.123980   7.273105   3.950140   5.152844
    17  H    4.722603   6.115776   7.263379   3.957669   5.172179
    18  H    3.377185   4.592174   5.631401   3.768219   5.555603
    19  H    3.432437   3.972507   4.651597   4.541309   6.165958
    20  H    2.843093   2.869125   3.324257   4.146981   5.477164
    21  H    2.838887   2.867056   3.323638   4.141521   5.466901
                   11         12         13         14         15
    11  F    0.000000
    12  O    2.438639   0.000000
    13  O    2.438563   2.554460   0.000000
    14  N    2.628025   3.525569   3.523764   0.000000
    15  H    5.731218   6.734237   6.724222   3.334050   0.000000
    16  H    4.588806   6.137430   5.765001   2.694612   1.777378
    17  H    4.622147   5.776423   6.160763   2.710282   1.776963
    18  H    5.972049   6.186783   6.177438   3.366401   2.412299
    19  H    7.096061   6.579754   6.565574   4.818879   4.789768
    20  H    6.656210   5.565191   5.947283   4.821443   5.752717
    21  H    6.646476   5.946142   5.543232   4.818119   5.752689
                   16         17         18         19         20
    16  H    0.000000
    17  H    1.766366   0.000000
    18  H    3.525141   3.502238   0.000000
    19  H    5.748541   5.725920   2.377725   0.000000
    20  H    6.484399   6.219027   3.492848   1.774084   0.000000
    21  H    6.246079   6.471818   3.497105   1.773823   1.767223
                   21
    21  H    0.000000
 Stoichiometry    C8H7FN2O2S
 Framework group  C1[X(C8H7FN2O2S)]
 Deg. of freedom    57
 Full point group                 C1      NOp   1
 RotChk:  IX=0 Diff= 2.99D-03
 Largest Abelian subgroup         C1      NOp   1
 Largest concise Abelian subgroup C1      NOp   1
                         Standard orientation:                         
 ---------------------------------------------------------------------
 Center     Atomic      Atomic             Coordinates (Angstroms)
 Number     Number       Type             X           Y           Z
 ---------------------------------------------------------------------
      1          6           0       -2.417889   -2.845097   -0.009043
      2          6           0       -1.786323   -1.485518   -0.001754
      3          6           0       -2.548811   -0.313356    0.003555
      4          6           0       -1.933296    0.932858    0.003798
      5          6           0       -2.726859    2.206868    0.010402
      6          6           0       -0.528861    0.958640   -0.001573
      7          6           0        0.167218    2.205926   -0.009520
      8          7           0        0.681020    3.247358   -0.014966
      9          6           0        0.134316   -0.269506   -0.001901
     10         16           0        1.922614   -0.297331    0.002675
     11          9           0        2.148946   -1.869701    0.004387
     12          8           0        2.393877    0.192977   -1.273239
     13          8           0        2.385464    0.194367    1.281207
     14          7           0       -0.447348   -1.462602   -0.001968
     15          1           0       -3.509190   -2.781998    0.012558
     16          1           0       -2.083647   -3.422804    0.858884
     17          1           0       -2.117872   -3.395477   -0.906939
     18          1           0       -3.632475   -0.372858    0.007074
     19          1           0       -3.799789    1.998943    0.019100
     20          1           0       -2.500485    2.811684   -0.874561
     21          1           0       -2.486278    2.810193    0.892604
 ---------------------------------------------------------------------
 Rotational constants (GHZ):           0.8172172           0.6035647           0.3757301
 Leave Link  202 at Fri Oct  4 20:00:49 2024, MaxMem=  2097152000 cpu:               0.1 elap:               0.0
 (Enter /uufs/chpc.utah.edu/sys/installdir/gaussian16/C01/AVX/g16/l301.exe)
 Standard basis: 6-31G(d) (6D, 7F)
 Ernie: Thresh=  0.10000D-02 Tol=  0.10000D-05 Strict=F.
 There are   228 symmetry adapted cartesian basis functions of A   symmetry.
 There are   228 symmetry adapted basis functions of A   symmetry.
   228 basis functions,   444 primitive gaussians,   228 cartesian basis functions
    55 alpha electrons       55 beta electrons
       nuclear repulsion energy      1027.8142357940 Hartrees.
 IExCor= 3731 DFT=T Ex+Corr=APFD ExCW=0 ScaHFX=  0.229450
 ScaDFX=  1.000000  1.000000  1.000000  1.000000 ScalE2=  1.000000  1.000000
 IRadAn=      5 IRanWt=     -1 IRanGd=            0 ICorTp=0 IEmpDi=211
 NAtoms=   21 NActive=   21 NUniq=   21 SFac= 1.00D+00 NAtFMM=   60 NAOKFM=F Big=F
 Integral buffers will be    131072 words long.
 Raffenetti 2 integral format.
 Two-electron integral symmetry is turned on.
 R6APFD:  NTU= -4 IXU= 1 FactS= 1.050
 R6Disp:  Petersson-Frisch Dispersion energy=       -0.0197002145 Hartrees.
 Nuclear repulsion after empirical dispersion term =     1027.7945355795 Hartrees.
 Leave Link  301 at Fri Oct  4 20:00:49 2024, MaxMem=  2097152000 cpu:               0.9 elap:               0.1
 (Enter /uufs/chpc.utah.edu/sys/installdir/gaussian16/C01/AVX/g16/l302.exe)
 NPDir=0 NMtPBC=     1 NCelOv=     1 NCel=       1 NClECP=     1 NCelD=      1
         NCelK=      1 NCelE2=     1 NClLst=     1 CellRange=     0.0.
 One-electron integrals computed using PRISM.
 One-electron integral symmetry used in STVInt
 NBasis=   228 RedAO= T EigKep=  5.47D-04  NBF=   228
 NBsUse=   228 1.00D-06 EigRej= -1.00D+00 NBFU=   228
 Precomputing XC quadrature grid using
 IXCGrd= 4 IRadAn=           5 IRanWt=          -1 IRanGd=           0 AccXCQ= 0.00D+00.
 Generated NRdTot=       0 NPtTot=           0 NUsed=           0 NTot=          32
 NSgBfM=   228   228   228   228   228 MxSgAt=    21 MxSgA2=    21.
 Leave Link  302 at Fri Oct  4 20:00:50 2024, MaxMem=  2097152000 cpu:               3.4 elap:               0.2
 (Enter /uufs/chpc.utah.edu/sys/installdir/gaussian16/C01/AVX/g16/l303.exe)
 DipDrv:  MaxL=1.
 Leave Link  303 at Fri Oct  4 20:00:50 2024, MaxMem=  2097152000 cpu:               0.8 elap:               0.1
 (Enter /uufs/chpc.utah.edu/sys/installdir/gaussian16/C01/AVX/g16/l401.exe)
 Initial guess from the checkpoint file:  "ID-4009.chk"
 B after Tr=    -0.000000    0.000000    0.000000
         Rot=    1.000000    0.000098   -0.000070    0.000148 Ang=   0.02 deg.
 Guess basis will be translated and rotated to current coordinates.
 JPrj=2 DoOrth=T DoCkMO=T.
 Generating alternative initial guess.
 ExpMin= 1.17D-01 ExpMax= 2.19D+04 ExpMxC= 3.30D+03 IAcc=3 IRadAn=         5 AccDes= 0.00D+00
 Harris functional with IExCor= 3731 and IRadAn=       5 diagonalized for initial guess.
 HarFok:  IExCor= 3731 AccDes= 0.00D+00 IRadAn=         5 IDoV= 1 UseB2=F ITyADJ=14
 ICtDFT=  3500011 ScaDFX=  1.000000  1.000000  1.000000  1.000000
 FoFCou: FMM=F IPFlag=           0 FMFlag=      100000 FMFlg1=           0
         NFxFlg=           0 DoJE=T BraDBF=F KetDBF=T FulRan=T
         wScrn=  0.000000 ICntrl=       500 IOpCl=  0 I1Cent=   200000004 NGrid=           0
         NMat0=    1 NMatS0=      1 NMatT0=    0 NMatD0=    1 NMtDS0=    0 NMtDT0=    0
 Petite list used in FoFCou.
 Harris En= -1041.73678829178    
 Leave Link  401 at Fri Oct  4 20:00:51 2024, MaxMem=  2097152000 cpu:              14.2 elap:               0.9
 (Enter /uufs/chpc.utah.edu/sys/installdir/gaussian16/C01/AVX/g16/l502.exe)
 Integral symmetry usage will be decided dynamically.
 Closed shell SCF:
 Using DIIS extrapolation, IDIIS=  1040.
 NGot=  2097152000 LenX=  2097041417 LenY=  2096988992
 Requested convergence on RMS density matrix=1.00D-08 within 128 cycles.
 Requested convergence on MAX density matrix=1.00D-06.
 Requested convergence on             energy=1.00D-06.
 No special actions if energy rises.
 Fock matrices will be formed incrementally for  20 cycles.
 Integral accuracy reduced to 1.0D-05 until final iterations.

 Cycle   1  Pass 0  IDiag  1:
 FoFJK:  IHMeth= 1 ICntrl=       0 DoSepK=F KAlg= 0 I1Cent=           0 FoldK=F
 IRaf= 870000000 NMat=       1 IRICut=       1 DoRegI=T DoRafI=F ISym2E= 0 IDoP0=0 IntGTp=1.
 FoFCou: FMM=F IPFlag=           0 FMFlag=      100000 FMFlg1=           0
         NFxFlg=           0 DoJE=F BraDBF=F KetDBF=F FulRan=T
         wScrn=  0.000000 ICntrl=         0 IOpCl=  0 I1Cent=           0 NGrid=           0
         NMat0=    1 NMatS0=      1 NMatT0=    0 NMatD0=    1 NMtDS0=    0 NMtDT0=    0
 Symmetry not used in FoFCou.
 E= -1066.33435539417    
 DIIS: error= 4.24D-03 at cycle   1 NSaved=   1.
 NSaved= 1 IEnMin= 1 EnMin= -1066.33435539417     IErMin= 1 ErrMin= 4.24D-03
 ErrMax= 4.24D-03  0.00D+00 EMaxC= 1.00D-01 BMatC= 5.33D-03 BMatP= 5.33D-03
 IDIUse=3 WtCom= 9.58D-01 WtEn= 4.24D-02
 Coeff-Com:  0.100D+01
 Coeff-En:   0.100D+01
 Coeff:      0.100D+01
 Gap=     1.753 Goal=   None    Shift=    0.000
 GapD=    1.753 DampG=2.000 DampE=1.000 DampFc=2.0000 IDamp=-1.
 RMSDP=9.16D-04 MaxDP=3.44D-02              OVMax= 3.02D-02

 Cycle   2  Pass 0  IDiag  1:
 RMSU=  9.16D-04    CP:  9.99D-01
 E= -1066.34370123781     Delta-E=       -0.009345843643 Rises=F Damp=F
[...]
                         Standard Origin              Atomic Origin
 NLMO      Total    Paramagnetic  Diamagnetic   Paramagnetic  Diamagnetic
    7      -0.5625       -0.8606       0.2981        -1.3233       0.7608
   14      -0.4416       -0.9270       0.4855        -1.0185       0.5770
   15      -0.4420       -0.9325       0.4905        -1.0243       0.5823
   16      -8.5389      -10.2405       1.7016       -10.0021       1.4632
   17      -1.6904       -1.6113      -0.0791        -1.8912       0.2008
   18      -1.1109       -1.6729       0.5621        -2.5782       1.4674
   19     -97.0660     -121.8241      24.7580      -121.6976      24.6316
   20     -21.8360      -43.9192      22.0832       -43.4839      21.6479
   21     -14.9391      -36.5694      21.6303       -36.5430      21.6039
   22       0.2304        0.1441       0.0863        -1.0668       1.2972
   25       0.3787       -0.0247       0.4034        -1.0334       1.4120
   26       0.3791       -0.0245       0.4035        -1.0331       1.4121
   33      -1.6004       -1.4556      -0.1448        -1.4663      -0.1341
   34     240.1911       -0.0326     240.2237        -0.0324     240.2235
   45    -138.0100     -167.6064      29.5964      -167.5345      29.5245
 Sum      -45.0585     -387.5572     342.4987      -391.7287     346.6702

 Contributions to Isotropic shielding for atom    9 (    39.3074 ppm):
                         Standard Origin              Atomic Origin
 NLMO      Total    Paramagnetic  Diamagnetic   Paramagnetic  Diamagnetic
    1      -1.0051       -0.8556      -0.1495        -0.9265      -0.0786
    5      -0.2816       -1.4065       1.1249        -1.3424       1.0608
    6       0.1215       -1.7699       1.8914        -1.6849       1.8065
    7       1.7545       -3.4673       5.2218        -3.2149       4.9694
    8       0.1804       -0.9931       1.1735        -1.1365       1.3169
    9       4.3521        1.1600       3.1921         0.9470       3.4051
   12      -0.4139       -1.4493       1.0355        -1.5742       1.1603
   16      -1.0889       -1.2837       0.1948        -1.3213       0.2324
   17     -48.3614      -60.7772      12.4159       -60.1946      11.8333
   18     -15.1788      -29.0455      13.8667       -29.0849      13.9061
   20      -1.4356       -1.7365       0.3008        -1.7171       0.2815
   22     -29.2358      -37.5676       8.3318       -37.7134       8.4776
   23     -52.3589      -58.5299       6.1711       -59.0986       6.7397
   24      -0.1296       -1.8399       1.7103        -1.7618       1.6322
   25       0.0970       -1.6564       1.7534        -1.5661       1.6630
   26       0.0971       -1.6565       1.7536        -1.5661       1.6632
   35     203.1623       -0.0133     203.1756        -0.0167     203.1790
   48      -1.6367       -1.8283       0.1917        -1.7693       0.1326
   50      -2.7775       -4.7225       1.9450        -4.6619       1.8844
   51      -1.1779       -1.7886       0.6107        -1.8425       0.6646
   53      -2.7796       -4.7290       1.9494        -4.6684       1.8888
   54      -1.1766       -1.7883       0.6117        -1.8423       0.6658
   55      -8.3015       -9.9549       1.6533        -9.9827       1.6811
 Sum       42.4256     -227.6999     270.1255      -227.7401     270.1657

 Contributions to Isotropic shielding for atom   10 (   238.2432 ppm):
                         Standard Origin              Atomic Origin
 NLMO      Total    Paramagnetic  Diamagnetic   Paramagnetic  Diamagnetic
    9       0.3365       -0.4621       0.7986        -0.8612       1.1977
   16      -0.5038       -0.7931       0.2894        -1.5775       1.0737
   17      -2.6757       -2.8285       0.1527        -3.6059       0.9301
   18      -1.6513       -2.6842       1.0329        -3.2377       1.5864
   22    -116.2419     -130.0732      13.8313      -127.7662      11.5243
   23      -2.8285       -2.6890      -0.1395        -3.7887       0.9602
   24     -84.8308      -90.5283       5.6975       -90.6125       5.7817
   25    -182.0506     -194.2672      12.2166      -194.1041      12.0535
   26    -182.0661     -194.2826      12.2166      -194.1194      12.0533
   36     569.2299        0.0000     569.2299         0.0000     569.2299
   37      93.8276       -0.1377      93.9653        -0.1444      93.9719
   38      52.2576      -51.9288     104.1864       -55.6852     107.9428
   39      54.7513      -52.5977     107.3490       -51.5630     106.3143
   40      19.9224      -90.1804     110.1028       -88.4841     108.4065
   46     -12.9659      -14.4821       1.5162       -14.4178       1.4519
   47      -0.2903       -0.7491       0.4589        -1.2071       0.9168
   48      -1.5702       -2.0586       0.4885        -2.7889       1.2187
   49     -34.5451      -36.4061       1.8610       -36.3257       1.7806
   50      29.1796       27.4606       1.7190        26.9663       2.2133
   51      26.0493       23.4957       2.5536        22.5635       3.4858
   52     -34.5439      -36.4049       1.8610       -36.3245       1.7806
   53      29.1193       27.3955       1.7238        26.9045       2.2148
   54      26.1102       23.5524       2.5578        22.6204       3.4898
   55      -3.9818       -4.1637       0.1819        -3.7462      -0.2355
 Sum      240.0380     -805.8133    1045.8513      -811.3053    1051.3433

 Contributions to Isotropic shielding for atom   11 (   140.1640 ppm):
                         Standard Origin              Atomic Origin
 NLMO      Total    Paramagnetic  Diamagnetic   Paramagnetic  Diamagnetic
    9       0.5861       -0.0002       0.5863        -0.5796       1.1657
   22      -4.1227       -4.1440       0.0213        -5.7142       1.5915
   23      -0.4846       -0.3723      -0.1123        -2.0238       1.5392
   24     -21.5966      -45.3012      23.7046       -45.9894      24.3929
   25      -7.8883       -7.9093       0.0210        -9.5980       1.7097
   26      -7.8879       -7.9089       0.0210        -9.5975       1.7095
   41     311.3848        0.0044     311.3803         0.0044     311.3803
   46      40.8722       -1.8236      42.6958        -2.1153      42.9875
   47     -64.0865     -106.6968      42.6103      -107.9824      43.8959
   48     -39.2219      -81.8480      42.6261       -82.4824      43.2605
   51     -35.6389      -39.1005       3.4615       -39.4986       3.8597
   54     -35.6941      -39.1630       3.4689       -39.5604       3.8663
   55       1.2342        1.7500      -0.5158         2.0532      -0.8190
 Sum      137.4557     -332.5133     469.9691      -343.0839     480.5397

 Contributions to Isotropic shielding for atom   12 (    93.1455 ppm):
                         Standard Origin              Atomic Origin
 NLMO      Total    Paramagnetic  Diamagnetic   Paramagnetic  Diamagnetic
    9      -0.1202       -0.6295       0.5093        -1.0066       0.8865
   16       0.2434       -0.0061       0.2495        -0.8081       1.0514
   17      -0.1791       -0.1127      -0.0664        -1.0671       0.8880
   18      -1.7033       -1.9779       0.2746        -3.0380       1.3346
   20      -0.5492       -0.6024       0.0532        -1.2695       0.7202
   21       0.3655       -0.0026       0.3681        -0.7360       1.1015
   22      -1.2969       -1.8402       0.5434        -2.5700       1.2731
   24      -8.7388       -8.3103      -0.4285        -9.9832       1.2443
   25     -68.5985      -80.1900      11.5915       -79.6554      11.0568
   26     -10.3905      -10.7083       0.3177       -11.6358       1.2453
   42     275.6712        0.0147     275.6565         0.0146     275.6566
   47      -6.7121       -7.3212       0.6090        -7.5114       0.7993
   48      -1.3279       -1.6910       0.3631        -1.8799       0.5520
   49      -0.8326      -33.7301      32.8975       -33.8517      33.0191
   50     -33.0648      -65.6905      32.6257       -68.8016      35.7368
   51     -17.6508      -51.1338      33.4831       -51.6036      33.9528
   52      -0.5820       -1.5713       0.9893        -0.7370       0.1550
   53     -25.8888      -28.8847       2.9959       -28.2749       2.3861
   54      -5.9306       -6.1915       0.2609        -6.7076       0.7771
 Sum       92.7138     -300.5795     393.2933      -311.1227     403.8365

 Contributions to Isotropic shielding for atom   13 (    93.1369 ppm):
                         Standard Origin              Atomic Origin
 NLMO      Total    Paramagnetic  Diamagnetic   Paramagnetic  Diamagnetic
    9      -0.1198       -0.6292       0.5094        -1.0065       0.8867
   16       0.2430       -0.0065       0.2495        -0.8085       1.0515
   17      -0.1791       -0.1127      -0.0664        -1.0674       0.8883
   18      -1.7026       -1.9770       0.2744        -3.0374       1.3348
   20      -0.5482       -0.6014       0.0532        -1.2687       0.7205
   21       0.3655       -0.0029       0.3684        -0.7363       1.1018
   22      -1.2964       -1.8399       0.5435        -2.5697       1.2733
   24      -8.7371       -8.3088      -0.4283        -9.9813       1.2443
   25     -10.3860      -10.7036       0.3176       -11.6313       1.2453
   26     -68.6044      -80.1973      11.5929       -79.6611      11.0568
   43     275.6712        0.0147     275.6565         0.0146     275.6566
   47      -6.7111       -7.3201       0.6089        -7.5104       0.7992
   48      -1.3289       -1.6921       0.3632        -1.8808       0.5519
   49      -0.5822       -1.5714       0.9892        -0.7372       0.1550
   50     -25.7883      -28.7771       2.9887       -28.1747       2.3864
   51      -5.9469       -6.2119       0.2650        -6.7264       0.7795
   52      -0.8316      -33.7287      32.8971       -33.8506      33.0190
   53     -33.1751      -65.8081      32.6330       -68.9124      35.7373
   54     -17.6341      -51.1131      33.4790       -51.5840      33.9499
 Sum       92.7079     -300.5869     393.2948      -311.1300     403.8380

 Contributions to Isotropic shielding for atom   14 (   -34.0506 ppm):
                         Standard Origin              Atomic Origin
 NLMO      Total    Paramagnetic  Diamagnetic   Paramagnetic  Diamagnetic
    1      -0.7411       -0.8974       0.1562        -1.1259       0.3848
    2      -2.3693       -3.0984       0.7290        -2.8634       0.4941
    3       0.1835       -1.2004       1.3839        -0.8266       1.0101
    4       0.2117       -1.1279       1.3396        -0.7773       0.9890
    5      -0.4963       -1.5378       1.0415        -0.7249       0.2286
    6     -56.4190      -71.6771      15.2581       -69.9122      13.4932
    7      -9.3761      -30.3266      20.9505       -30.4395      21.0634
    8       0.7239       -0.4605       1.1844        -0.6230       1.3469
    9       7.2262        4.0504       3.1758         4.5283       2.6979
   12       0.1550       -0.3871       0.5421        -1.0543       1.2093
   16      -1.3861       -1.3904       0.0043        -1.3726      -0.0135
   17      -5.0866       -5.8026       0.7160        -6.1950       1.1084
   18      -0.5387       -2.6919       2.1532        -3.2951       2.7564
   22      -2.2449       -2.4447       0.1997        -3.2087       0.9638
   23     -56.2603      -73.2352      16.9749       -68.1627      11.9024
   24       1.0642       -0.4845       1.5487        -0.9644       2.0286
   25       0.2971       -0.4569       0.7540        -0.7476       1.0447
   26       0.2969       -0.4571       0.7540        -0.7476       1.0445
   44     239.6475        0.0030     239.6445         0.0131     239.6344
   48      -1.5134       -1.6800       0.1666        -1.4931      -0.0203
   55    -144.3235     -166.8616      22.5381      -173.8390      29.5154
 Sum      -30.9495     -362.1646     331.2151      -363.8315     332.8820

 Contributions to Isotropic shielding for atom   15 (    30.0736 ppm):
                         Standard Origin              Atomic Origin
 NLMO      Total    Paramagnetic  Diamagnetic   Paramagnetic  Diamagnetic
    1       0.6646       -1.0048       1.6693        -0.2761       0.9406
    2      26.0081        1.4911      24.5170         1.9412      24.0668
    3       2.1341        1.6735       0.4606         0.0056       2.1285
    4       2.1044        1.6814       0.4230         0.0033       2.1011
    5      -1.4355        0.0855      -1.5210        -2.4044       0.9690
   18       0.2313        0.1569       0.0744        -0.9150       1.1463
 Sum       29.7070        4.0837      25.6233        -1.6453      31.3524

 Contributions to Isotropic shielding for atom   16 (    29.3914 ppm):
                         Standard Origin              Atomic Origin
 NLMO      Total    Paramagnetic  Diamagnetic   Paramagnetic  Diamagnetic
    1       2.0516       -0.7297       2.7813         0.9661       1.0855
    2       1.4963        1.5736      -0.0774        -0.3552       1.8515
    3      25.2461        1.4602      23.7859         1.8468      23.3993
    4       2.1075        0.9775       1.1299        -0.0648       2.1722
    6      -0.8213        0.1272      -0.9485        -1.9496       1.1283
    7      -0.8905       -0.3796      -0.5109        -2.2537       1.3633
   55       0.2848       -0.1586       0.4435         1.0544      -0.7696
 Sum       29.4744        2.8706      26.6039        -0.7561      30.2305

 Contributions to Isotropic shielding for atom   17 (    29.3915 ppm):
                         Standard Origin              Atomic Origin
 NLMO      Total    Paramagnetic  Diamagnetic   Paramagnetic  Diamagnetic
    1       2.0580       -0.6969       2.7550         0.9719       1.0861
    2       1.4944        1.5870      -0.0926        -0.3578       1.8522
    3       2.0453        0.9347       1.1106        -0.1045       2.1498
    4      25.3051        1.4921      23.8130         1.8801      23.4250
    6      -0.7977        0.1239      -0.9216        -1.8943       1.0966
    7      -0.9047       -0.3881      -0.5165        -2.2484       1.3437
   55       0.2818       -0.1705       0.4523         1.0358      -0.7540
 Sum       29.4823        2.8821      26.6002        -0.7172      30.1995

 Contributions to Isotropic shielding for atom   18 (    25.0147 ppm):
                         Standard Origin              Atomic Origin
 NLMO      Total    Paramagnetic  Diamagnetic   Paramagnetic  Diamagnetic
    1      -0.9024       -0.2448      -0.6576        -1.7392       0.8367
    2      -0.0448       -1.5046       1.4598        -0.6160       0.5711
    5      -1.9099       -1.4151      -0.4947        -2.4861       0.5763
    8      -2.1926       -1.9554      -0.2372        -2.9585       0.7658
    9       0.8661        0.3058       0.5603        -3.0353       3.9015
   10      27.2663        3.2686      23.9978         3.6756      23.5908
   11      -0.9708       -0.0414      -0.9294        -1.7714       0.8007
   13       0.0003       -1.3796       1.3799        -0.6265       0.6268
   18       0.7128        0.3058       0.4070        -0.5263       1.2392
   23      -0.0982       -0.0283      -0.0699        -1.1685       1.0703
   29       1.2520        0.8439       0.4081         1.2809      -0.0289
 Sum       23.9788       -1.8451      25.8239        -9.9714      33.9502

 Contributions to Isotropic shielding for atom   19 (    30.0831 ppm):
                         Standard Origin              Atomic Origin
 NLMO      Total    Paramagnetic  Diamagnetic   Paramagnetic  Diamagnetic
    8      -1.2484        0.3852      -1.6336        -2.2288       0.9804
    9      -0.6899       -0.1624      -0.5275        -2.2736       1.5837
   11       0.5623       -0.8373       1.3996        -0.7614       1.3238
   13      25.8594        1.5475      24.3119         1.9886      23.8708
   14       2.0732        1.5567       0.5165        -0.0247       2.0980
   15       2.1007        1.5667       0.5341        -0.0266       2.1273
 Sum       28.6574        4.0563      24.6011        -3.3266      31.9840

 Contributions to Isotropic shielding for atom   20 (    29.3675 ppm):
                         Standard Origin              Atomic Origin
 NLMO      Total    Paramagnetic  Diamagnetic   Paramagnetic  Diamagnetic
    7       0.4074        0.0476       0.3598        -0.6785       1.0859
    9      -1.0385       -0.6755      -0.3630        -1.8815       0.8430
   11       1.9819       -1.0167       2.9986         0.9053       1.0767
   12      -0.7138       -0.0946      -0.6192        -1.4949       0.7811
   13       1.5354        1.4635       0.0719        -0.4994       2.0349
   14      25.2544        1.5457      23.7087         1.9179      23.3365
   15       2.0446        0.8174       1.2272        -0.0841       2.1287
   16      -0.2599        0.2004      -0.4603        -1.4858       1.2258
   20      -0.2538        0.1805      -0.4343        -1.0901       0.8363
   21       0.3119        0.3808      -0.0689        -1.0109       1.3228
 Sum       29.2697        2.8491      26.4206        -5.4020      34.6717

 Contributions to Isotropic shielding for atom   21 (    29.3648 ppm):
                         Standard Origin              Atomic Origin
 NLMO      Total    Paramagnetic  Diamagnetic   Paramagnetic  Diamagnetic
    7       0.4080        0.0480       0.3600        -0.6798       1.0878
    9      -1.0340       -0.6744      -0.3596        -1.8744       0.8403
   11       1.9816       -1.0232       3.0048         0.9066       1.0750
   12      -0.7174       -0.0949      -0.6225        -1.5019       0.7846
   13       1.5392        1.4634       0.0758        -0.4965       2.0357
   14       2.1004        0.8521       1.2483        -0.0515       2.1519
   15      25.1945        1.5105      23.6840         1.8831      23.3114
   16      -0.2608        0.2003      -0.4611        -1.4885       1.2277
   20      -0.2560        0.1799      -0.4360        -1.0930       0.8370
   21       0.3135        0.3823      -0.0688        -1.0128       1.3263
 Sum       29.2689        2.8440      26.4250        -5.4087      34.6776
 
 Leave Link  607 at Fri Oct  4 20:04:13 2024, MaxMem=  2097152000 cpu:              46.6 elap:               7.1
 (Enter /uufs/chpc.utah.edu/sys/installdir/gaussian16/C01/AVX/g16/l9999.exe)
 Unable to Open any file for archive entry.
 1\1\GINC-NOTCH141\SP\RAPFD\6-31G(d)\C8H7F1N2O2S1\U1318517\04-Oct-2024\
 0\\#p apfd/6-31G* volume NMR pop=NPA geom=check guess=read\\ID-4009\\0
 ,1\C,0,1.1462554857,-0.0619972593,0.0154243056\C,0,2.6388444235,0.0511
 046317,0.0155597634\C,0,3.2940221304,1.2836300206,-0.0049984027\C,0,4.
 6844069354,1.355144256,-0.0061493158\C,0,5.4140131158,2.6626415247,-0.
 0282862576\C,0,5.3901196729,0.1365054078,0.0144124171\C,0,6.8169472741
 ,0.1415303477,0.0144643139\N,0,7.97706195,0.2056141127,0.0137170163\C,
 0,4.6332113211,-1.0426366633,0.0343076227\S,0,5.5271584979,-2.61503670
 25,0.0612777315\F,0,4.2779604444,-3.6039745878,0.0782534421\O,0,6.1973
 472137,-2.8045023453,-1.2019376344\O,0,6.1973283928,-2.7609699508,1.33
 02752227\N,0,3.3223620453,-1.1034581839,0.0351994074\H,0,0.6624958157,
 0.918021591,0.017792661\H,0,0.8115638586,-0.6249938256,0.8933961207\H,
 0,0.8115796433,-0.6190245798,-0.8666671131\H,0,2.7115935364,2.20082772
 67,-0.0202726729\H,0,4.7188887522,3.5055007501,-0.0398654667\H,0,6.061
 5390712,2.7312444633,-0.9099534046\H,0,6.0659804195,2.7588392658,0.847
 4702438\\Version=ES64L-G16RevC.01\State=1-A\HF=-1066.3450298\RMSD=7.21
 4e-09\Dipole=-2.3605141,2.259651,-0.0406765\Quadrupole=-3.4775265,5.50
 83619,-2.0308354,-1.5395282,0.0369314,-0.1322448\PG=C01 [X(C8H7F1N2O2S
 1)]\\@
 The archive entry for this job was punched.


 ABALONE: AN EXPRESSION OF DISBELIEF.
 Job cpu time:       0 days  0 hours  3 minutes 25.7 seconds.
 Elapsed time:       0 days  0 hours  0 minutes 20.1 seconds.
 File lengths (MBytes):  RWF=     48 Int=      0 D2E=      0 Chk=      7 Scr=      2
 Normal termination of Gaussian 16 at Fri Oct  4 20:04:14 2024.
