 Entering Gaussian System, Link 0=g16
 Input=BPDMJOYLYBUPSI-UHFFFAOYSA-N_conf_0.gjf
 Output=BPDMJOYLYBUPSI-UHFFFAOYSA-N_conf_0.log
 Initial command:
 /opt/export/g16/l1.exe "/tmp/Gau-2323756.inp" -scrdir="/tmp/"
 Entering Link 1 = /opt/export/g16/l1.exe PID=   2323757.
  
 Copyright (c) 1988,1990,1992,1993,1995,1998,2003,2009,2016,
            Gaussian, Inc.  All Rights Reserved.
  
 This is part of the Gaussian(R) 16 program.  It is based on
 the Gaussian(R) 09 system (copyright 2009, Gaussian, Inc.),
 the Gaussian(R) 03 system (copyright 2003, Gaussian, Inc.),
 the Gaussian(R) 98 system (copyright 1998, Gaussian, Inc.),
 the Gaussian(R) 94 system (copyright 1995, Gaussian, Inc.),
 the Gaussian 92(TM) system (copyright 1992, Gaussian, Inc.),
 the Gaussian 90(TM) system (copyright 1990, Gaussian, Inc.),
 the Gaussian 88(TM) system (copyright 1988, Gaussian, Inc.),
 the Gaussian 86(TM) system (copyright 1986, Carnegie Mellon
 University), and the Gaussian 82(TM) system (copyright 1983,
 Carnegie Mellon University). Gaussian is a federally registered
 trademark of Gaussian, Inc.
  
 This software contains proprietary and confidential information,
 including trade secrets, belonging to Gaussian, Inc.
  
 This software is provided under written license and may be
 used, copied, transmitted, or stored only in accord with that
 written license.
  
 The following legend is applicable only to US Government
 contracts under FAR:
  
                    RESTRICTED RIGHTS LEGEND
  
 Use, reproduction and disclosure by the US Government is
 subject to restrictions as set forth in subparagraphs (a)
 and (c) of the Commercial Computer Software - Restricted
 Rights clause in FAR 52.227-19.
  
 Gaussian, Inc.
 340 Quinnipiac St., Bldg. 40, Wallingford CT 06492
  
  
 ---------------------------------------------------------------
 Warning -- This program may not be used in any manner that
 competes with the business of Gaussian, Inc. or will provide
 assistance to any competitor of Gaussian, Inc.  The licensee
 of this program is prohibited from giving any competitor of
 Gaussian, Inc. access to this program.  By using this program,
 the user acknowledges that Gaussian, Inc. is engaged in the
 business of creating and licensing software in the field of
 computational chemistry and represents and warrants to the
 licensee that it is not a competitor of Gaussian, Inc. and that
 it will not use this program in any manner prohibited above.
 ---------------------------------------------------------------
  

 Cite this work as:
 Gaussian 16, Revision A.03,
 M. J. Frisch, G. W. Trucks, H. B. Schlegel, G. E. Scuseria, 
 M. A. Robb, J. R. Cheeseman, G. Scalmani, V. Barone, 
 G. A. Petersson, H. Nakatsuji, X. Li, M. Caricato, A. V. Marenich, 
 J. Bloino, B. G. Janesko, R. Gomperts, B. Mennucci, H. P. Hratchian, 
 J. V. Ortiz, A. F. Izmaylov, J. L. Sonnenberg, D. Williams-Young, 
 F. Ding, F. Lipparini, F. Egidi, J. Goings, B. Peng, A. Petrone, 
 T. Henderson, D. Ranasinghe, V. G. Zakrzewski, J. Gao, N. Rega, 
 G. Zheng, W. Liang, M. Hada, M. Ehara, K. Toyota, R. Fukuda, 
 J. Hasegawa, M. Ishida, T. Nakajima, Y. Honda, O. Kitao, H. Nakai, 
 T. Vreven, K. Throssell, J. A. Montgomery, Jr., J. E. Peralta, 
 F. Ogliaro, M. J. Bearpark, J. J. Heyd, E. N. Brothers, K. N. Kudin, 
 V. N. Staroverov, T. A. Keith, R. Kobayashi, J. Normand, 
 K. Raghavachari, A. P. Rendell, J. C. Burant, S. S. Iyengar, 
 J. Tomasi, M. Cossi, J. M. Millam, M. Klene, C. Adamo, R. Cammi, 
 J. W. Ochterski, R. L. Martin, K. Morokuma, O. Farkas, 
 J. B. Foresman, and D. J. Fox, Gaussian, Inc., Wallingford CT, 2016.
 
 ******************************************
 Gaussian 16:  ES64L-G16RevA.03 25-Dec-2016
                28-Jan-2024 
 ******************************************
 %nprocshared=3
 Will use up to    3 processors via shared memory.
 %mem=6GB
 %Chk=BPDMJOYLYBUPSI-UHFFFAOYSA-N_conf_0_0.chk
 --------------------------------
 # opt=CalcFc APFD/6-31G* scf=xqc
 --------------------------------
 1/10=4,18=20,19=15,26=3,38=1/1,3;
 2/9=110,12=2,17=6,18=5,40=1/2;
 3/5=1,6=6,7=1,11=2,25=1,30=1,71=2,74=-44,140=1/1,2,3;
 4//1;
 5/5=2,8=3,13=1,38=5/2,8;
 8/6=4,10=90,11=11/1;
 11/6=1,8=1,9=11,15=111,16=1/1,2,10;
 10/6=1,13=1/2;
 6/7=2,8=2,9=2,10=2,28=1/1;
 7/10=1,18=20,25=1/1,2,3,16;
 1/10=4,18=20,19=15,26=3/3(2);
 2/9=110/2;
 99//99;
 2/9=110/2;
 3/5=1,6=6,7=1,11=2,25=1,30=1,71=1,74=-44/1,2,3;
 4/5=5,16=3,69=1/1;
 5/5=2,8=3,13=1,38=5/2,8;
 7//1,2,3,16;
 1/18=20,19=15,26=3/3(-5);
 2/9=110/2;
 6/7=2,8=2,9=2,10=2,19=2,28=1/1;
 99/9=1/99;
 ----------------------------------
 BPDMJOYLYBUPSI-UHFFFAOYSA-N_conf_0
 ----------------------------------
 Symbolic Z-matrix:
 Charge =  0 Multiplicity = 1
 O                    -3.23085   2.04775   0.44049 
 S                    -2.27162   2.03186  -0.65106 
 C                    -0.98206   0.85287  -0.27958 
 N                     0.24206   1.37358  -0.04828 
 C                     1.2002    0.4692    0.22983 
 C                     2.58294   0.98557   0.49641 
 C                     0.94545  -0.8937    0.27454 
 C                    -0.35221  -1.31156   0.01942 
 C                    -0.69518  -2.77113   0.0518 
 N                    -1.34411  -0.44726  -0.26318 
 F                    -1.59045   3.47475  -0.60757 
 O                    -2.68526   1.86478  -2.03412 
 H                     2.90391   0.70389   1.50408 
 H                     2.612     2.07744   0.42199 
 H                     3.28707   0.5752   -0.23404 
 H                     1.73097  -1.60599   0.50039 
 H                    -0.10695  -3.31429  -0.69434 
 H                    -0.49014  -3.18568   1.04369 
 H                    -1.75574  -2.92727  -0.17047 
 

 GradGradGradGradGradGradGradGradGradGradGradGradGradGradGradGradGradGrad
 Berny optimization.
 Initialization pass.
                           ----------------------------
                           !    Initial Parameters    !
                           ! (Angstroms and Degrees)  !
 --------------------------                            --------------------------
 ! Name  Definition              Value          Derivative Info.                !
 --------------------------------------------------------------------------------
 ! R1    R(1,2)                  1.4532         calculate D2E/DX2 analytically  !
 ! R2    R(2,3)                  1.7863         calculate D2E/DX2 analytically  !
 ! R3    R(2,11)                 1.5962         calculate D2E/DX2 analytically  !
 ! R4    R(2,12)                 1.4532         calculate D2E/DX2 analytically  !
 ! R5    R(3,4)                  1.3502         calculate D2E/DX2 analytically  !
 ! R6    R(3,10)                 1.3497         calculate D2E/DX2 analytically  !
 ! R7    R(4,5)                  1.3466         calculate D2E/DX2 analytically  !
 ! R8    R(5,6)                  1.4999         calculate D2E/DX2 analytically  !
 ! R9    R(5,7)                  1.3872         calculate D2E/DX2 analytically  !
 ! R10   R(6,13)                 1.0944         calculate D2E/DX2 analytically  !
 ! R11   R(6,14)                 1.0948         calculate D2E/DX2 analytically  !
 ! R12   R(6,15)                 1.0944         calculate D2E/DX2 analytically  !
 ! R13   R(7,8)                  1.3869         calculate D2E/DX2 analytically  !
 ! R14   R(7,16)                 1.0842         calculate D2E/DX2 analytically  !
 ! R15   R(8,9)                  1.4997         calculate D2E/DX2 analytically  !
 ! R16   R(8,10)                 1.3456         calculate D2E/DX2 analytically  !
 ! R17   R(9,17)                 1.0944         calculate D2E/DX2 analytically  !
 ! R18   R(9,18)                 1.0944         calculate D2E/DX2 analytically  !
 ! R19   R(9,19)                 1.0948         calculate D2E/DX2 analytically  !
 ! A1    A(1,2,3)              109.1181         calculate D2E/DX2 analytically  !
 ! A2    A(1,2,11)             104.5564         calculate D2E/DX2 analytically  !
 ! A3    A(1,2,12)             121.8862         calculate D2E/DX2 analytically  !
 ! A4    A(3,2,11)             106.4324         calculate D2E/DX2 analytically  !
 ! A5    A(3,2,12)             109.1181         calculate D2E/DX2 analytically  !
 ! A6    A(11,2,12)            104.5564         calculate D2E/DX2 analytically  !
 ! A7    A(2,3,4)              115.8216         calculate D2E/DX2 analytically  !
 ! A8    A(2,3,10)             116.4007         calculate D2E/DX2 analytically  !
 ! A9    A(4,3,10)             127.7776         calculate D2E/DX2 analytically  !
 ! A10   A(3,4,5)              114.926          calculate D2E/DX2 analytically  !
 ! A11   A(4,5,6)              117.4804         calculate D2E/DX2 analytically  !
 ! A12   A(4,5,7)              122.4002         calculate D2E/DX2 analytically  !
 ! A13   A(6,5,7)              120.1193         calculate D2E/DX2 analytically  !
 ! A14   A(5,6,13)             110.207          calculate D2E/DX2 analytically  !
 ! A15   A(5,6,14)             110.8395         calculate D2E/DX2 analytically  !
 ! A16   A(5,6,15)             110.2077         calculate D2E/DX2 analytically  !
 ! A17   A(13,6,14)            108.1491         calculate D2E/DX2 analytically  !
 ! A18   A(13,6,15)            109.2276         calculate D2E/DX2 analytically  !
 ! A19   A(14,6,15)            108.1498         calculate D2E/DX2 analytically  !
 ! A20   A(5,7,8)              117.509          calculate D2E/DX2 analytically  !
 ! A21   A(5,7,16)             121.2747         calculate D2E/DX2 analytically  !
 ! A22   A(8,7,16)             121.2163         calculate D2E/DX2 analytically  !
 ! A23   A(7,8,9)              120.2138         calculate D2E/DX2 analytically  !
 ! A24   A(7,8,10)             122.3295         calculate D2E/DX2 analytically  !
 ! A25   A(9,8,10)             117.4567         calculate D2E/DX2 analytically  !
 ! A26   A(8,9,17)             110.205          calculate D2E/DX2 analytically  !
 ! A27   A(8,9,18)             110.2052         calculate D2E/DX2 analytically  !
 ! A28   A(8,9,19)             110.8529         calculate D2E/DX2 analytically  !
 ! A29   A(17,9,18)            109.2211         calculate D2E/DX2 analytically  !
 ! A30   A(17,9,19)            108.1479         calculate D2E/DX2 analytically  !
 ! A31   A(18,9,19)            108.1483         calculate D2E/DX2 analytically  !
 ! A32   A(3,10,8)             115.0576         calculate D2E/DX2 analytically  !
 ! D1    D(1,2,3,4)           -112.311          calculate D2E/DX2 analytically  !
 ! D2    D(1,2,3,10)            67.6892         calculate D2E/DX2 analytically  !
 ! D3    D(11,2,3,4)            -0.0042         calculate D2E/DX2 analytically  !
 ! D4    D(11,2,3,10)          179.996          calculate D2E/DX2 analytically  !
 ! D5    D(12,2,3,4)           112.3025         calculate D2E/DX2 analytically  !
 ! D6    D(12,2,3,10)          -67.6972         calculate D2E/DX2 analytically  !
 ! D7    D(2,3,4,5)            180.0            calculate D2E/DX2 analytically  !
 ! D8    D(10,3,4,5)            -0.0003         calculate D2E/DX2 analytically  !
 ! D9    D(2,3,10,8)          -179.9998         calculate D2E/DX2 analytically  !
 ! D10   D(4,3,10,8)             0.0004         calculate D2E/DX2 analytically  !
 ! D11   D(3,4,5,6)            180.0            calculate D2E/DX2 analytically  !
 ! D12   D(3,4,5,7)             -0.0003         calculate D2E/DX2 analytically  !
 ! D13   D(4,5,6,13)           119.6848         calculate D2E/DX2 analytically  !
 ! D14   D(4,5,6,14)            -0.0021         calculate D2E/DX2 analytically  !
 ! D15   D(4,5,6,15)          -119.6903         calculate D2E/DX2 analytically  !
 ! D16   D(7,5,6,13)           -60.315          calculate D2E/DX2 analytically  !
 ! D17   D(7,5,6,14)           179.9982         calculate D2E/DX2 analytically  !
 ! D18   D(7,5,6,15)            60.31           calculate D2E/DX2 analytically  !
 ! D19   D(4,5,7,8)              0.0007         calculate D2E/DX2 analytically  !
 ! D20   D(4,5,7,16)          -179.9999         calculate D2E/DX2 analytically  !
 ! D21   D(6,5,7,8)           -179.9996         calculate D2E/DX2 analytically  !
 ! D22   D(6,5,7,16)            -0.0002         calculate D2E/DX2 analytically  !
 ! D23   D(5,7,8,9)            179.9989         calculate D2E/DX2 analytically  !
 ! D24   D(5,7,8,10)            -0.0005         calculate D2E/DX2 analytically  !
 ! D25   D(16,7,8,9)            -0.0005         calculate D2E/DX2 analytically  !
 ! D26   D(16,7,8,10)         -180.0            calculate D2E/DX2 analytically  !
 ! D27   D(7,8,9,17)           -60.3044         calculate D2E/DX2 analytically  !
 ! D28   D(7,8,9,18)            60.3096         calculate D2E/DX2 analytically  !
 ! D29   D(7,8,9,19)          -179.9971         calculate D2E/DX2 analytically  !
 ! D30   D(10,8,9,17)          119.6951         calculate D2E/DX2 analytically  !
 ! D31   D(10,8,9,18)         -119.691          calculate D2E/DX2 analytically  !
 ! D32   D(10,8,9,19)            0.0023         calculate D2E/DX2 analytically  !
 ! D33   D(7,8,10,3)             0.0            calculate D2E/DX2 analytically  !
 ! D34   D(9,8,10,3)          -179.9995         calculate D2E/DX2 analytically  !
 --------------------------------------------------------------------------------
 Trust Radius=3.00D-01 FncErr=1.00D-07 GrdErr=1.00D-06 EigMax=2.50D+02 EigMin=1.00D-04
 Number of steps in this run=     95 maximum allowed number of steps=    114.
 GradGradGradGradGradGradGradGradGradGradGradGradGradGradGradGradGradGrad

                          Input orientation:                          
 ---------------------------------------------------------------------
 Center     Atomic      Atomic             Coordinates (Angstroms)
 Number     Number       Type             X           Y           Z
 ---------------------------------------------------------------------
      1          8           0       -3.230851    2.047749    0.440494
      2         16           0       -2.271619    2.031861   -0.651062
      3          6           0       -0.982061    0.852870   -0.279575
      4          7           0        0.242055    1.373584   -0.048283
      5          6           0        1.200195    0.469196    0.229834
      6          6           0        2.582935    0.985566    0.496411
      7          6           0        0.945450   -0.893697    0.274537
      8          6           0       -0.352211   -1.311560    0.019415
      9          6           0       -0.695183   -2.771133    0.051800
     10          7           0       -1.344111   -0.447260   -0.263180
     11          9           0       -1.590449    3.474752   -0.607570
     12          8           0       -2.685261    1.864777   -2.034119
     13          1           0        2.903911    0.703892    1.504079
     14          1           0        2.612005    2.077440    0.421985
     15          1           0        3.287070    0.575204   -0.234035
     16          1           0        1.730967   -1.605995    0.500392
     17          1           0       -0.106954   -3.314289   -0.694341
     18          1           0       -0.490145   -3.185684    1.043694
     19          1           0       -1.755743   -2.927275   -0.170475
 ---------------------------------------------------------------------
                    Distance matrix (angstroms):
                    1          2          3          4          5
     1  O    0.000000
     2  S    1.453229   0.000000
     3  C    2.646373   1.786332   0.000000
     4  N    3.571341   2.667439   1.350222   0.000000
     5  C    4.708543   3.907863   2.273532   1.346588   0.000000
     6  C    5.910285   5.096874   3.650885   2.434536   1.499890
     7  C    5.110884   4.445802   2.659480   2.395734   1.387216
     8  C    4.443966   3.913072   2.273953   2.750951   2.371778
     9  C    5.459150   5.103716   3.650412   4.250542   3.758175
    10  N    3.206246   2.675213   1.349699   2.424372   2.748900
    11  F    2.413647   1.596189   2.711454   2.843551   4.185966
    12  O    2.540641   1.453225   2.646369   3.571274   4.708493
    13  H    6.369652   5.761445   4.278364   3.153378   2.140427
    14  H    5.842961   5.000329   3.861226   2.516590   2.148622
    15  H    6.716150   5.761492   4.278394   3.153416   2.140434
    16  H    6.162229   5.529967   3.743646   3.375766   2.159013
    17  H    6.308568   5.767926   4.278207   4.745034   4.108222
    18  H    5.938362   5.767896   4.278194   4.745046   4.108255
    19  H    5.224948   5.009004   3.860049   4.743787   4.520379
                    6          7          8          9         10
     6  C    0.000000
     7  C    2.502442   0.000000
     8  C    3.757578   1.386946   0.000000
     9  C    5.005649   2.503209   1.499677   0.000000
    10  N    4.248725   2.393854   1.345638   2.433250   0.000000
    11  F    4.983168   5.127597   4.983486   6.344080   3.944803
    12  O    5.910202   5.110884   4.444012   5.459224   3.206310
    13  H    1.094422   2.810628   4.107140   5.209452   4.742789
    14  H    1.094793   3.409809   4.520393   5.880747   4.742828
    15  H    1.094420   2.810605   4.107126   5.209416   4.742797
    16  H    2.728013   1.084166   2.158161   2.728550   3.373694
    17  H    5.209812   2.811680   2.140215   1.094422   3.152191
    18  H    5.209863   2.811715   2.140214   1.094416   3.152165
    19  H    5.880407   3.410267   2.148603   1.094794   2.515652
                   11         12         13         14         15
    11  F    0.000000
    12  O    2.413643   0.000000
    13  H    5.686475   6.716051   0.000000
    14  H    4.546767   5.842833   1.772786   0.000000
    15  H    5.686572   6.369619   1.784492   1.772791   0.000000
    16  H    6.170363   6.162230   2.778266   3.788148   2.778214
    17  H    6.949775   5.938468   5.481253   6.140819   5.182609
    18  H    6.949731   6.308615   5.182699   6.140873   5.481261
    19  H    6.419060   5.225030   6.140185   6.668988   6.140144
                   16         17         18         19
    16  H    0.000000
    17  H    2.779138   0.000000
    18  H    2.779196   1.784416   0.000000
    19  H    3.788534   1.772772   1.772772   0.000000
 Stoichiometry    C6H7FN2O2S
 Framework group  C1[X(C6H7FN2O2S)]
 Deg. of freedom    51
 Full point group                 C1      NOp   1
 Largest Abelian subgroup         C1      NOp   1
 Largest concise Abelian subgroup C1      NOp   1
                         Standard orientation:                         
 ---------------------------------------------------------------------
 Center     Atomic      Atomic             Coordinates (Angstroms)
 Number     Number       Type             X           Y           Z
 ---------------------------------------------------------------------
      1          8           0        2.383485   -0.711143   -1.270274
      2         16           0        1.936399   -0.164912    0.000009
      3          6           0        0.152679   -0.068345    0.000003
      4          7           0       -0.368875    1.177079    0.000004
      5          6           0       -1.714468    1.228848   -0.000001
      6          6           0       -2.354918    2.585128    0.000002
      7          6           0       -2.502259    0.087027   -0.000013
      8          6           0       -1.853532   -1.138850   -0.000006
      9          6           0       -2.645989   -2.412052    0.000006
     10          7           0       -0.511936   -1.243068    0.000002
     11          9           0        2.470038    1.339431   -0.000097
     12          8           0        2.383484   -0.710961    1.270366
     13          1           0       -2.976261    2.709779   -0.892274
     14          1           0       -1.596016    3.374202    0.000045
     15          1           0       -2.976347    2.709748    0.892218
     16          1           0       -3.584596    0.149979   -0.000019
     17          1           0       -3.277692   -2.464093    0.892195
     18          1           0       -3.277626   -2.464151   -0.892221
     19          1           0       -1.983341   -3.283528    0.000061
 ---------------------------------------------------------------------
 Rotational constants (GHZ):           1.3291551           0.6038735           0.4563414
 Standard basis: 6-31G(d) (6D, 7F)
 There are   198 symmetry adapted cartesian basis functions of A   symmetry.
 There are   198 symmetry adapted basis functions of A   symmetry.
   198 basis functions,   388 primitive gaussians,   198 cartesian basis functions
    49 alpha electrons       49 beta electrons
       nuclear repulsion energy       842.6698010007 Hartrees.
 NAtoms=   19 NActive=   19 NUniq=   19 SFac= 1.00D+00 NAtFMM=   60 NAOKFM=F Big=F
 Integral buffers will be    131072 words long.
 Raffenetti 2 integral format.
 Two-electron integral symmetry is turned on.
 R6APFD:  NTU= -4 IXU= 1 FactS= 1.050
 Nuclear repulsion after empirical dispersion term =      842.6545894870 Hartrees.
 One-electron integrals computed using PRISM.
 NBasis=   198 RedAO= T EigKep=  1.22D-03  NBF=   198
 NBsUse=   198 1.00D-06 EigRej= -1.00D+00 NBFU=   198
 ExpMin= 1.17D-01 ExpMax= 2.19D+04 ExpMxC= 3.30D+03 IAcc=3 IRadAn=         5 AccDes= 0.00D+00
 Harris functional with IExCor= 3731 and IRadAn=       5 diagonalized for initial guess.
 HarFok:  IExCor= 3731 AccDes= 0.00D+00 IRadAn=         5 IDoV= 1 UseB2=F ITyADJ=14
 ICtDFT=  3500011 ScaDFX=  1.000000  1.000000  1.000000  1.000000
 FoFCou: FMM=F IPFlag=           0 FMFlag=      100000 FMFlg1=           0
         NFxFlg=           0 DoJE=T BraDBF=F KetDBF=T FulRan=T
         wScrn=  0.000000 ICntrl=       500 IOpCl=  0 I1Cent=   200000004 NGrid=           0
         NMat0=    1 NMatS0=      1 NMatT0=    0 NMatD0=    1 NMtDS0=    0 NMtDT0=    0
 Petite list used in FoFCou.
 Keep R1 ints in memory in canonical form, NReq=198016058.
 Requested convergence on RMS density matrix=1.00D-08 within  32 cycles.
 Requested convergence on MAX density matrix=1.00D-06.
 Requested convergence on             energy=1.00D-06.
 No special actions if energy rises.
 Integral accuracy reduced to 1.0D-05 until final iterations.
 Initial convergence to 1.0D-05 achieved.  Increase integral accuracy.
 SCF Done:  E(RAPFD) =  -990.207399203     A.U. after   15 cycles
            NFock= 15  Conv=0.63D-08     -V/T= 2.0066
 QCSCF skips out because SCF is already converged.
 DoSCS=F DFT=T ScalE2(SS,OS)=  1.000000  1.000000
 Range of M.O.s used for correlation:     1   198
 NBasis=   198 NAE=    49 NBE=    49 NFC=     0 NFV=     0
 NROrb=    198 NOA=    49 NOB=    49 NVA=   149 NVB=   149
 R6APFD:  NTU= -4 IXU= 1 FactS= 1.050
 Symmetrizing basis deriv contribution to polar:
 IMax=3 JMax=2 DiffMx= 0.00D+00
 G2DrvN: will do    20 centers at a time, making    1 passes.
 Calling FoFCou, ICntrl=  3107 FMM=F I1Cent=   0 AccDes= 0.00D+00.
 End of G2Drv F.D. properties file   721 does not exist.
 End of G2Drv F.D. properties file   722 does not exist.
 End of G2Drv F.D. properties file   788 does not exist.
          IDoAtm=1111111111111111111
          Differentiating once with respect to nuclear coordinates.
 Keep R1 ints in memory in canonical form, NReq=198023970.
          There are    60 degrees of freedom in the 1st order CPHF.  IDoFFX=6 NUNeed=     0.
     54 vectors produced by pass  0 Test12= 1.22D-14 1.67D-09 XBig12= 2.35D-01 2.16D-01.
 AX will form    54 AO Fock derivatives at one time.
     54 vectors produced by pass  1 Test12= 1.22D-14 1.67D-09 XBig12= 2.50D-02 6.08D-02.
     54 vectors produced by pass  2 Test12= 1.22D-14 1.67D-09 XBig12= 4.44D-04 3.56D-03.
     54 vectors produced by pass  3 Test12= 1.22D-14 1.67D-09 XBig12= 6.00D-06 4.78D-04.
     54 vectors produced by pass  4 Test12= 1.22D-14 1.67D-09 XBig12= 2.54D-08 2.56D-05.
     48 vectors produced by pass  5 Test12= 1.22D-14 1.67D-09 XBig12= 5.05D-11 1.29D-06.
     17 vectors produced by pass  6 Test12= 1.22D-14 1.67D-09 XBig12= 6.40D-14 2.80D-08.
 InvSVY:  IOpt=1 It=  1 EMax= 5.55D-16
 Solved reduced A of dimension   335 with    60 vectors.
 End of Minotr F.D. properties file   721 does not exist.
 End of Minotr F.D. properties file   722 does not exist.
 End of Minotr F.D. properties file   788 does not exist.

 **********************************************************************

            Population analysis using the SCF density.

 **********************************************************************

 Orbital symmetries:
       Occupied  (A) (A) (A) (A) (A) (A) (A) (A) (A) (A) (A) (A)
                 (A) (A) (A) (A) (A) (A) (A) (A) (A) (A) (A) (A)
                 (A) (A) (A) (A) (A) (A) (A) (A) (A) (A) (A) (A)
                 (A) (A) (A) (A) (A) (A) (A) (A) (A) (A) (A) (A)
                 (A)
       Virtual   (A) (A) (A) (A) (A) (A) (A) (A) (A) (A) (A) (A)
                 (A) (A) (A) (A) (A) (A) (A) (A) (A) (A) (A) (A)
                 (A) (A) (A) (A) (A) (A) (A) (A) (A) (A) (A) (A)
                 (A) (A) (A) (A) (A) (A) (A) (A) (A) (A) (A) (A)
                 (A) (A) (A) (A) (A) (A) (A) (A) (A) (A) (A) (A)
                 (A) (A) (A) (A) (A) (A) (A) (A) (A) (A) (A) (A)
                 (A) (A) (A) (A) (A) (A) (A) (A) (A) (A) (A) (A)
                 (A) (A) (A) (A) (A) (A) (A) (A) (A) (A) (A) (A)
                 (A) (A) (A) (A) (A) (A) (A) (A) (A) (A) (A) (A)
                 (A) (A) (A) (A) (A) (A) (A) (A) (A) (A) (A) (A)
                 (A) (A) (A) (A) (A) (A) (A) (A) (A) (A) (A) (A)
                 (A) (A) (A) (A) (A) (A) (A) (A) (A) (A) (A) (A)
                 (A) (A) (A) (A) (A)
 The electronic state is 1-A.
 Alpha  occ. eigenvalues --  -89.23476 -24.78919 -19.20953 -19.20953 -14.41627
 Alpha  occ. eigenvalues --  -14.41465 -10.34505 -10.30620 -10.30500 -10.25757
 Alpha  occ. eigenvalues --  -10.23393 -10.23343  -8.21318  -6.16272  -6.15876
 Alpha  occ. eigenvalues --   -6.15837  -1.27988  -1.12704  -1.04448  -1.04147
 Alpha  occ. eigenvalues --   -0.94818  -0.86702  -0.79028  -0.75339  -0.74885
 Alpha  occ. eigenvalues --   -0.65919  -0.64281  -0.58648  -0.57140  -0.52939
 Alpha  occ. eigenvalues --   -0.52201  -0.51278  -0.49129  -0.46748  -0.46156
 Alpha  occ. eigenvalues --   -0.44891  -0.44710  -0.43826  -0.43022  -0.42347
 Alpha  occ. eigenvalues --   -0.40813  -0.38438  -0.37096  -0.35081  -0.34148
 Alpha  occ. eigenvalues --   -0.33210  -0.32690  -0.30926  -0.29616
 Alpha virt. eigenvalues --   -0.07541  -0.06117   0.00714   0.06574   0.07499
 Alpha virt. eigenvalues --    0.09395   0.11218   0.11408   0.13058   0.14285
 Alpha virt. eigenvalues --    0.14620   0.16012   0.17236   0.18616   0.21076
 Alpha virt. eigenvalues --    0.22195   0.24111   0.25593   0.28277   0.32123
 Alpha virt. eigenvalues --    0.33790   0.36672   0.37544   0.40691   0.41428
 Alpha virt. eigenvalues --    0.45935   0.49648   0.50440   0.51743   0.54400
 Alpha virt. eigenvalues --    0.55024   0.55276   0.55718   0.59271   0.60453
 Alpha virt. eigenvalues --    0.62916   0.64523   0.65783   0.67279   0.70690
 Alpha virt. eigenvalues --    0.73995   0.75599   0.76481   0.76936   0.77291
 Alpha virt. eigenvalues --    0.80631   0.81830   0.82977   0.83705   0.85287
 Alpha virt. eigenvalues --    0.85682   0.87633   0.87880   0.88949   0.89997
 Alpha virt. eigenvalues --    0.91053   0.91945   0.94581   0.95060   0.96143
 Alpha virt. eigenvalues --    0.99084   0.99239   1.03290   1.04181   1.07936
 Alpha virt. eigenvalues --    1.09829   1.14202   1.16804   1.16951   1.20119
 Alpha virt. eigenvalues --    1.20846   1.25399   1.28584   1.29830   1.31017
 Alpha virt. eigenvalues --    1.33021   1.36383   1.40065   1.41561   1.42626
 Alpha virt. eigenvalues --    1.44490   1.46093   1.46204   1.54426   1.57781
 Alpha virt. eigenvalues --    1.59036   1.62285   1.73484   1.76880   1.77247
 Alpha virt. eigenvalues --    1.78823   1.79392   1.79855   1.80498   1.82305
 Alpha virt. eigenvalues --    1.84205   1.84590   1.86648   1.86798   1.87223
 Alpha virt. eigenvalues --    1.87748   1.89734   1.90981   1.94118   1.97301
 Alpha virt. eigenvalues --    1.97621   2.01325   2.10373   2.12768   2.12919
 Alpha virt. eigenvalues --    2.13828   2.16459   2.16820   2.20249   2.22408
 Alpha virt. eigenvalues --    2.26386   2.27738   2.31675   2.32530   2.34300
 Alpha virt. eigenvalues --    2.36059   2.37522   2.41108   2.44385   2.50470
 Alpha virt. eigenvalues --    2.62837   2.67792   2.68232   2.69503   2.70639
 Alpha virt. eigenvalues --    2.73521   2.81611   2.83419   2.90036   2.94899
 Alpha virt. eigenvalues --    3.12654   3.34350   3.78808   3.85144   3.94960
 Alpha virt. eigenvalues --    4.04337   4.06613   4.15819   4.16575   4.26736
 Alpha virt. eigenvalues --    4.28960   4.36028   4.58659   4.60272
          Condensed to atoms (all electrons):
               1          2          3          4          5          6
     1  O    8.138819   0.460867  -0.049464   0.000500  -0.000161   0.000000
     2  S    0.460867  13.468295   0.164370  -0.017084  -0.001204  -0.000310
     3  C   -0.049464   0.164370   5.260010   0.317873  -0.041163   0.009967
     4  N    0.000500  -0.017084   0.317873   6.878783   0.459273  -0.079147
     5  C   -0.000161  -0.001204  -0.041163   0.459273   4.629023   0.357098
     6  C    0.000000  -0.000310   0.009967  -0.079147   0.357098   5.303770
     7  C    0.000015   0.001703  -0.060126  -0.038901   0.452300  -0.095048
     8  C   -0.000095  -0.000251  -0.046130  -0.035857  -0.014412   0.004146
     9  C    0.000000  -0.000364   0.009602   0.000086   0.004275  -0.000189
    10  N   -0.000906  -0.014715   0.353124  -0.055917  -0.029196   0.000168
    11  F   -0.037023   0.214180  -0.025566   0.002155   0.000274   0.000003
    12  O   -0.041584   0.460870  -0.049464   0.000500  -0.000161   0.000000
    13  H   -0.000000   0.000004  -0.000238   0.001297  -0.030182   0.368198
    14  H    0.000000   0.000030   0.000091   0.005391  -0.026579   0.362648
    15  H   -0.000000   0.000004  -0.000238   0.001297  -0.030182   0.368199
    16  H   -0.000000  -0.000005   0.000129   0.003743  -0.032268  -0.002336
    17  H   -0.000000   0.000005  -0.000244   0.000018   0.000038   0.000001
    18  H   -0.000000   0.000005  -0.000244   0.000018   0.000038   0.000001
    19  H   -0.000000   0.000046   0.000154   0.000031  -0.000102   0.000002
               7          8          9         10         11         12
     1  O    0.000015  -0.000095   0.000000  -0.000906  -0.037023  -0.041584
     2  S    0.001703  -0.000251  -0.000364  -0.014715   0.214180   0.460870
     3  C   -0.060126  -0.046130   0.009602   0.353124  -0.025566  -0.049464
     4  N   -0.038901  -0.035857   0.000086  -0.055917   0.002155   0.000500
     5  C    0.452300  -0.014412   0.004275  -0.029196   0.000274  -0.000161
     6  C   -0.095048   0.004146  -0.000189   0.000168   0.000003   0.000000
     7  C    5.257393   0.452034  -0.094964  -0.044598  -0.000003   0.000015
     8  C    0.452034   4.615509   0.356909   0.484468  -0.000015  -0.000095
     9  C   -0.094964   0.356909   5.303347  -0.078207   0.000000   0.000000
    10  N   -0.044598   0.484468  -0.078207   6.816408   0.000489  -0.000907
    11  F   -0.000003  -0.000015   0.000000   0.000489   9.158090  -0.037024
    12  O    0.000015  -0.000095   0.000000  -0.000907  -0.037024   8.138815
    13  H   -0.000769   0.000043   0.000001   0.000019  -0.000000  -0.000000
    14  H    0.005122  -0.000099   0.000002   0.000028  -0.000001   0.000000
    15  H   -0.000769   0.000043   0.000001   0.000019  -0.000000  -0.000000
    16  H    0.359457  -0.033054  -0.002217   0.003726  -0.000000  -0.000000
    17  H   -0.000667  -0.030260   0.368112   0.001269  -0.000000  -0.000000
    18  H   -0.000667  -0.030259   0.368112   0.001269  -0.000000  -0.000000
    19  H    0.005041  -0.026256   0.362734   0.005304   0.000000  -0.000000
              13         14         15         16         17         18
     1  O   -0.000000   0.000000  -0.000000  -0.000000  -0.000000  -0.000000
     2  S    0.000004   0.000030   0.000004  -0.000005   0.000005   0.000005
     3  C   -0.000238   0.000091  -0.000238   0.000129  -0.000244  -0.000244
     4  N    0.001297   0.005391   0.001297   0.003743   0.000018   0.000018
     5  C   -0.030182  -0.026579  -0.030182  -0.032268   0.000038   0.000038
     6  C    0.368198   0.362648   0.368199  -0.002336   0.000001   0.000001
     7  C   -0.000769   0.005122  -0.000769   0.359457  -0.000667  -0.000667
     8  C    0.000043  -0.000099   0.000043  -0.033054  -0.030260  -0.030259
     9  C    0.000001   0.000002   0.000001  -0.002217   0.368112   0.368112
    10  N    0.000019   0.000028   0.000019   0.003726   0.001269   0.001269
    11  F   -0.000000  -0.000001  -0.000000  -0.000000  -0.000000  -0.000000
    12  O   -0.000000   0.000000  -0.000000  -0.000000  -0.000000  -0.000000
    13  H    0.499689  -0.020895  -0.024042   0.000997   0.000000  -0.000001
    14  H   -0.020895   0.473498  -0.020894  -0.000029  -0.000000  -0.000000
    15  H   -0.024042  -0.020894   0.499688   0.000997  -0.000001   0.000000
    16  H    0.000997  -0.000029   0.000997   0.502751   0.000972   0.000972
    17  H    0.000000  -0.000000  -0.000001   0.000972   0.499556  -0.024165
    18  H   -0.000001  -0.000000   0.000000   0.000972  -0.024165   0.499551
    19  H   -0.000000  -0.000000  -0.000000  -0.000024  -0.020674  -0.020674
              19
     1  O   -0.000000
     2  S    0.000046
     3  C    0.000154
     4  N    0.000031
     5  C   -0.000102
     6  C    0.000002
     7  C    0.005041
     8  C   -0.026256
     9  C    0.362734
    10  N    0.005304
    11  F    0.000000
    12  O   -0.000000
    13  H   -0.000000
    14  H   -0.000000
    15  H   -0.000000
    16  H   -0.000024
    17  H   -0.020674
    18  H   -0.020674
    19  H    0.469794
 Mulliken charges:
               1
     1  O   -0.470968
     2  S    1.263555
     3  C    0.157557
     4  N   -0.444059
     5  C    0.303292
     6  C   -0.597173
     7  C   -0.196564
     8  C    0.303630
     9  C   -0.597240
    10  N   -0.441846
    11  F   -0.275559
    12  O   -0.470965
    13  H    0.205879
    14  H    0.221685
    15  H    0.205878
    16  H    0.196188
    17  H    0.206041
    18  H    0.206044
    19  H    0.224624
 Sum of Mulliken charges =  -0.00000
 Mulliken charges with hydrogens summed into heavy atoms:
               1
     1  O   -0.470968
     2  S    1.263555
     3  C    0.157557
     4  N   -0.444059
     5  C    0.303292
     6  C    0.036269
     7  C   -0.000375
     8  C    0.303630
     9  C    0.039469
    10  N   -0.441846
    11  F   -0.275559
    12  O   -0.470965
 APT charges:
               1
     1  O   -0.055050
     2  S    0.143711
     3  C   -0.005050
     4  N   -0.489933
     5  C    0.200078
     6  C   -1.480304
     7  C   -0.477891
     8  C    0.230882
     9  C   -1.493320
    10  N   -0.479076
    11  F   -0.012097
    12  O   -0.055051
    13  H    0.593864
    14  H    0.410445
    15  H    0.593885
    16  H    0.756725
    17  H    0.596494
    18  H    0.596493
    19  H    0.425194
 Sum of APT charges =  -0.00000
 APT charges with hydrogens summed into heavy atoms:
               1
     1  O   -0.055050
     2  S    0.143711
     3  C   -0.005050
     4  N   -0.489933
     5  C    0.200078
     6  C    0.117890
     7  C    0.278834
     8  C    0.230882
     9  C    0.124861
    10  N   -0.479076
    11  F   -0.012097
    12  O   -0.055051
 Electronic spatial extent (au):  <R**2>=           2425.4047
 Charge=             -0.0000 electrons
 Dipole moment (field-independent basis, Debye):
    X=             -7.7448    Y=              1.2745    Z=             -0.0001  Tot=              7.8490
 Quadrupole moment (field-independent basis, Debye-Ang):
   XX=            -69.3905   YY=            -71.6765   ZZ=            -78.4083
   XY=              2.9099   XZ=             -0.0001   YZ=             -0.0003
 Traceless Quadrupole moment (field-independent basis, Debye-Ang):
   XX=              3.7680   YY=              1.4819   ZZ=             -5.2499
   XY=              2.9099   XZ=             -0.0001   YZ=             -0.0003
 Octapole moment (field-independent basis, Debye-Ang**2):
  XXX=            -24.6568  YYY=              7.3580  ZZZ=             -0.0014  XYY=            -11.4697
  XXY=              8.5645  XXZ=             -0.0005  XZZ=             -0.7070  YZZ=              5.7065
  YYZ=              0.0004  XYZ=             -0.0006
 Hexadecapole moment (field-independent basis, Debye-Ang**3):
 XXXX=          -1833.3072 YYYY=           -872.6956 ZZZZ=           -192.6295 XXXY=             38.1967
 XXXZ=             -0.0030 YYYX=             14.1028 YYYZ=             -0.0013 ZZZX=             -0.0023
 ZZZY=             -0.0007 XXYY=           -435.0140 XXZZ=           -367.9836 YYZZ=           -183.7772
 XXYZ=             -0.0012 YYXZ=              0.0013 ZZXY=             13.2092
 N-N= 8.426545894870D+02 E-N=-4.014991757650D+03  KE= 9.836942138569D+02
  Exact polarizability:   0.000   0.000   0.000   0.000   0.000   0.000
 Approx polarizability: 172.893  -2.519 164.329   0.001   0.001 102.540
 R6APFD:  NTU= -4 IXU= 1 FactS= 1.050
 Calling FoFJK, ICntrl=    100147 FMM=F ISym2X=0 I1Cent= 0 IOpClX= 0 NMat=1 NMatS=1 NMatT=0.
 ***** Axes restored to original set *****
 -------------------------------------------------------------------
 Center     Atomic                   Forces (Hartrees/Bohr)
 Number     Number              X              Y              Z
 -------------------------------------------------------------------
      1        8           0.010424337   -0.003982121   -0.007134214
      2       16          -0.043779966    0.004670988   -0.009992907
      3        6           0.043311467   -0.019116603    0.010962880
      4        7          -0.021932784   -0.011420699   -0.003989738
      5        6           0.006060291    0.009946331    0.000599893
      6        6          -0.002825819    0.006734119   -0.001119037
      7        6          -0.004538222    0.005654645   -0.001419054
      8        6          -0.011036588   -0.005633663   -0.002016968
      9        6          -0.007105481    0.001988663   -0.001716994
     10        7           0.002974386    0.028961795   -0.001486972
     11        9           0.013344268   -0.007663311    0.003508855
     12        8           0.006353626   -0.002618198    0.011316402
     13        1           0.002258114   -0.001701382   -0.000329834
     14        1          -0.001413143   -0.001653851   -0.000189518
     15        1           0.001859786   -0.001567890    0.001478196
     16        1           0.000817270   -0.000710564    0.000232763
     17        1           0.001670434   -0.001727418    0.001414141
     18        1           0.002054756   -0.001857689   -0.000324270
     19        1           0.001503269    0.001696848    0.000206375
 -------------------------------------------------------------------
 Cartesian Forces:  Max     0.043779966 RMS     0.011066032
 FormGI is forming the generalized inverse of G from B-inverse, IUseBI=4.

 GradGradGradGradGradGradGradGradGradGradGradGradGradGradGradGradGradGrad
 Berny optimization.
 Internal  Forces:  Max     0.035305523 RMS     0.007447840
 Search for a local minimum.
 Step number   1 out of a maximum of   95
 All quantities printed in internal units (Hartrees-Bohrs-Radians)
 Mixed Optimization -- RFO/linear search
 Second derivative matrix not updated -- analytic derivatives used.
 ITU=  0
     Eigenvalues ---   -0.00091  -0.00035  -0.00032   0.01338   0.02005
     Eigenvalues ---    0.02226   0.02384   0.02581   0.02757   0.02855
     Eigenvalues ---    0.05768   0.05796   0.05839   0.05856   0.11346
     Eigenvalues ---    0.12787   0.12805   0.13557   0.13945   0.14141
     Eigenvalues ---    0.14727   0.14761   0.14830   0.15961   0.17230
     Eigenvalues ---    0.17780   0.18925   0.19636   0.20990   0.21558
     Eigenvalues ---    0.21799   0.25496   0.28570   0.30256   0.32653
     Eigenvalues ---    0.33025   0.34741   0.34746   0.34940   0.34977
     Eigenvalues ---    0.35335   0.35371   0.37164   0.37559   0.43107
     Eigenvalues ---    0.45848   0.50629   0.50862   0.56582   0.65562
     Eigenvalues ---    0.65707
 RFO step:  Lambda=-1.48857407D-02 EMin=-9.14721892D-04
 Linear search not attempted -- first point.
 Iteration  1 RMS(Cart)=  0.13124284 RMS(Int)=  0.03114390
 Iteration  2 RMS(Cart)=  0.05317472 RMS(Int)=  0.00235746
 Iteration  3 RMS(Cart)=  0.00244964 RMS(Int)=  0.00036715
 Iteration  4 RMS(Cart)=  0.00000493 RMS(Int)=  0.00036714
 Iteration  5 RMS(Cart)=  0.00000001 RMS(Int)=  0.00036714
 Variable       Old X    -DE/DX   Delta X   Delta X   Delta X     New X
                                 (Linear)    (Quad)   (Total)
    R1        2.74620  -0.01228   0.00000  -0.02243  -0.02243   2.72377
    R2        3.37568   0.00401   0.00000   0.04417   0.04417   3.41985
    R3        3.01636  -0.00114   0.00000  -0.00408  -0.00408   3.01228
    R4        2.74620  -0.01228   0.00000  -0.01925  -0.01925   2.72695
    R5        2.55155  -0.02433   0.00000  -0.06465  -0.06447   2.48708
    R6        2.55056  -0.02961   0.00000  -0.05957  -0.05937   2.49119
    R7        2.54468  -0.00734   0.00000  -0.00449  -0.00450   2.54018
    R8        2.83438   0.00048   0.00000  -0.00436  -0.00436   2.83002
    R9        2.62146   0.00521   0.00000   0.01284   0.01265   2.63411
   R10        2.06816   0.00080   0.00000   0.00492   0.00492   2.07308
   R11        2.06886  -0.00167   0.00000  -0.00565  -0.00565   2.06320
   R12        2.06815   0.00080   0.00000   0.00086   0.00086   2.06901
   R13        2.62095   0.00708   0.00000   0.01644   0.01627   2.63722
   R14        2.04878   0.00111   0.00000   0.00447   0.00447   2.05324
   R15        2.83398   0.00032   0.00000  -0.00480  -0.00480   2.82918
   R16        2.54289  -0.00855   0.00000  -0.00992  -0.00990   2.53299
   R17        2.06816   0.00079   0.00000   0.00324   0.00324   2.07139
   R18        2.06815   0.00079   0.00000   0.00254   0.00254   2.07068
   R19        2.06886  -0.00174   0.00000  -0.00574  -0.00574   2.06312
    A1        1.90447  -0.00309   0.00000   0.01790   0.01741   1.92188
    A2        1.82485   0.01418   0.00000   0.04321   0.04263   1.86748
    A3        2.12732   0.00762   0.00000   0.01232   0.01182   2.13914
    A4        1.85760  -0.03531   0.00000  -0.14687  -0.14768   1.70992
    A5        1.90447  -0.00309   0.00000   0.00535   0.00465   1.90912
    A6        1.82485   0.01418   0.00000   0.04216   0.04072   1.86557
    A7        2.02147   0.00093   0.00000   0.03877   0.03830   2.05977
    A8        2.03158  -0.01807   0.00000  -0.08561  -0.08603   1.94554
    A9        2.23014   0.01714   0.00000   0.04684   0.04685   2.27699
   A10        2.00584  -0.00025   0.00000  -0.00383  -0.00357   2.00227
   A11        2.05042   0.00112   0.00000  -0.00080  -0.00074   2.04968
   A12        2.13629  -0.00963   0.00000  -0.03051  -0.03072   2.10557
   A13        2.09648   0.00851   0.00000   0.03131   0.03138   2.12785
   A14        1.92347   0.00152   0.00000   0.00158   0.00159   1.92506
   A15        1.93451  -0.00198   0.00000  -0.01295  -0.01298   1.92154
   A16        1.92349   0.00152   0.00000   0.01731   0.01731   1.94080
   A17        1.88756   0.00090   0.00000   0.00120   0.00119   1.88875
   A18        1.90638  -0.00291   0.00000  -0.02897  -0.02894   1.87744
   A19        1.88757   0.00090   0.00000   0.02146   0.02143   1.90900
   A20        2.05092   0.00146   0.00000   0.02133   0.02099   2.07191
   A21        2.11664  -0.00075   0.00000  -0.01098  -0.01082   2.10583
   A22        2.11562  -0.00071   0.00000  -0.01034  -0.01018   2.10545
   A23        2.09813   0.00791   0.00000   0.03148   0.03154   2.12967
   A24        2.13505  -0.00809   0.00000  -0.03514  -0.03527   2.09979
   A25        2.05001   0.00019   0.00000   0.00366   0.00372   2.05373
   A26        1.92344   0.00140   0.00000   0.00748   0.00750   1.93094
   A27        1.92344   0.00140   0.00000   0.01080   0.01082   1.93426
   A28        1.93475  -0.00202   0.00000  -0.01325  -0.01322   1.92153
   A29        1.90627  -0.00279   0.00000  -0.02871  -0.02869   1.87758
   A30        1.88754   0.00099   0.00000   0.01001   0.01004   1.89758
   A31        1.88754   0.00099   0.00000   0.01333   0.01336   1.90090
   A32        2.00813  -0.00063   0.00000   0.00131   0.00165   2.00978
    D1       -1.96020   0.00255   0.00000  -0.30138  -0.30096  -2.26116
    D2        1.18140   0.00255   0.00000  -0.25994  -0.26054   0.92086
    D3       -0.00007  -0.00000   0.00000  -0.31605  -0.31594  -0.31601
    D4        3.14152  -0.00000   0.00000  -0.27461  -0.27551   2.86601
    D5        1.96005  -0.00255   0.00000  -0.33771  -0.33672   1.62333
    D6       -1.18154  -0.00255   0.00000  -0.29627  -0.29630  -1.47783
    D7        3.14159   0.00000   0.00000   0.04355   0.04523  -3.09636
    D8       -0.00000  -0.00000   0.00000  -0.00342  -0.00422  -0.00423
    D9       -3.14159  -0.00000   0.00000  -0.05274  -0.05226   3.08934
   D10        0.00001  -0.00000   0.00000  -0.00554  -0.00535  -0.00534
   D11        3.14159   0.00000   0.00000   0.02189   0.02195  -3.11964
   D12       -0.00001   0.00000   0.00000   0.00833   0.00883   0.00882
   D13        2.08889   0.00084   0.00000  -0.23273  -0.23275   1.85615
   D14       -0.00004  -0.00000   0.00000  -0.22696  -0.22699  -0.22703
   D15       -2.08899  -0.00083   0.00000  -0.25663  -0.25669  -2.34568
   D16       -1.05269   0.00084   0.00000  -0.21950  -0.21944  -1.27214
   D17        3.14156  -0.00000   0.00000  -0.21372  -0.21369   2.92787
   D18        1.05261  -0.00083   0.00000  -0.24340  -0.24339   0.80922
   D19        0.00001  -0.00000   0.00000  -0.00427  -0.00434  -0.00433
   D20       -3.14159  -0.00000   0.00000  -0.00543  -0.00556   3.13603
   D21       -3.14159  -0.00000   0.00000  -0.01818  -0.01806   3.12354
   D22       -0.00000   0.00000   0.00000  -0.01933  -0.01928  -0.01929
   D23        3.14157   0.00000   0.00000  -0.00571  -0.00578   3.13579
   D24       -0.00001   0.00000   0.00000  -0.00555  -0.00569  -0.00570
   D25       -0.00001   0.00000   0.00000  -0.00455  -0.00456  -0.00457
   D26       -3.14159  -0.00000   0.00000  -0.00440  -0.00447   3.13712
   D27       -1.05251   0.00084   0.00000  -0.02975  -0.02978  -1.08229
   D28        1.05260  -0.00084   0.00000  -0.05372  -0.05374   0.99886
   D29       -3.14154  -0.00000   0.00000  -0.03859  -0.03862   3.10303
   D30        2.08907   0.00084   0.00000  -0.02990  -0.02987   2.05920
   D31       -2.08900  -0.00084   0.00000  -0.05387  -0.05383  -2.14283
   D32        0.00004  -0.00000   0.00000  -0.03874  -0.03871  -0.03867
   D33        0.00000   0.00000   0.00000   0.00993   0.00999   0.01000
   D34       -3.14158  -0.00000   0.00000   0.01008   0.01009  -3.13150
         Item               Value     Threshold  Converged?
 Maximum Force            0.035306     0.000450     NO 
 RMS     Force            0.007448     0.000300     NO 
 Maximum Displacement     0.773826     0.001800     NO 
 RMS     Displacement     0.173974     0.001200     NO 
 Predicted change in Energy=-8.186145D-03
 GradGradGradGradGradGradGradGradGradGradGradGradGradGradGradGradGradGrad

                          Input orientation:                          
 ---------------------------------------------------------------------
 Center     Atomic      Atomic             Coordinates (Angstroms)
 Number     Number       Type             X           Y           Z
 ---------------------------------------------------------------------
      1          8           0       -3.416025    1.739256    0.208176
      2         16           0       -2.292634    1.970999   -0.664637
      3          6           0       -0.932773    0.855617   -0.238334
      4          7           0        0.262195    1.377573   -0.060157
      5          6           0        1.232631    0.484546    0.199925
      6          6           0        2.612018    1.015197    0.441688
      7          6           0        0.947323   -0.878737    0.255106
      8          6           0       -0.366317   -1.298006    0.040288
      9          6           0       -0.753953   -2.743666    0.075198
     10          7           0       -1.330859   -0.400736   -0.207177
     11          9           0       -1.613736    3.335676   -0.198079
     12          8           0       -2.425127    2.037950   -2.100020
     13          1           0        2.864057    0.948556    1.507288
     14          1           0        2.668365    2.063705    0.142549
     15          1           0        3.360586    0.438826   -0.111660
     16          1           0        1.732518   -1.601193    0.460225
     17          1           0       -0.231154   -3.302835   -0.709354
     18          1           0       -0.487224   -3.195386    1.037221
     19          1           0       -1.829889   -2.847342   -0.078248
 ---------------------------------------------------------------------
                    Distance matrix (angstroms):
                    1          2          3          4          5
     1  O    0.000000
     2  S    1.441359   0.000000
     3  C    2.673337   1.809705   0.000000
     4  N    3.705688   2.691598   1.316106   0.000000
     5  C    4.815015   3.922308   2.240254   1.344205   0.000000
     6  C    6.075861   5.117921   3.612954   2.429986   1.497581
     7  C    5.088703   4.411830   2.605039   2.379018   1.393910
     8  C    4.307420   3.859275   2.244235   2.750243   2.399918
     9  C    5.215449   5.014275   3.617335   4.246821   3.792548
    10  N    3.016621   2.599886   1.318281   2.392032   2.742432
    11  F    2.441690   1.594027   2.572164   2.715199   4.048353
    12  O    2.529598   1.443039   2.662875   3.437854   4.591514
    13  H    6.461605   5.688067   4.179923   3.067674   2.141508
    14  H    6.093388   5.027092   3.817426   2.510283   2.135034
    15  H    6.907668   5.883216   4.315402   3.237889   2.151132
    16  H    6.142444   5.497973   3.691568   3.362394   2.160543
    17  H    6.033900   5.662599   4.243448   4.750903   4.160975
    18  H    5.797921   5.731262   4.270384   4.762124   4.147393
    19  H    4.861558   4.875899   3.813443   4.714557   4.534080
                    6          7          8          9         10
     6  C    0.000000
     7  C    2.528440   0.000000
     8  C    3.792427   1.395558   0.000000
     9  C    5.058964   2.530744   1.497135   0.000000
    10  N    4.239359   2.373247   1.340400   2.429378   0.000000
    11  F    4.863221   4.952341   4.804569   6.145918   3.747116
    12  O    5.734032   5.042529   4.466342   5.512553   3.275281
    13  H    1.097027   2.929305   4.199338   5.364082   4.728350
    14  H    1.091801   3.410663   4.529994   5.901492   4.710580
    15  H    1.094875   2.773866   4.114545   5.205055   4.766932
    16  H    2.760319   1.086529   2.161799   2.763336   3.357201
    17  H    5.296596   2.862734   2.144662   1.096134   3.143838
    18  H    5.262031   2.834871   2.146753   1.095757   3.173377
    19  H    5.909321   3.420444   2.134605   1.091757   2.500307
                   11         12         13         14         15
    11  F    0.000000
    12  O    2.441276   0.000000
    13  H    5.353247   6.494222   0.000000
    14  H    4.479991   5.565378   1.773236   0.000000
    15  H    5.757003   6.323389   1.768433   1.784384   0.000000
    16  H    6.000288   6.089681   2.979587   3.795814   2.671954
    17  H    6.800204   5.938977   5.706852   6.158954   5.220907
    18  H    6.741645   6.401996   5.350169   6.198083   5.416002
    19  H    6.187956   5.320521   6.241466   6.663439   6.143375
                   16         17         18         19
    16  H    0.000000
    17  H    2.849475   0.000000
    18  H    2.793140   1.768514   0.000000
    19  H    3.812294   1.778123   1.779932   0.000000
 Stoichiometry    C6H7FN2O2S
 Framework group  C1[X(C6H7FN2O2S)]
 Deg. of freedom    51
 Full point group                 C1      NOp   1
 Largest Abelian subgroup         C1      NOp   1
 Largest concise Abelian subgroup C1      NOp   1
                         Standard orientation:                         
 ---------------------------------------------------------------------
 Center     Atomic      Atomic             Coordinates (Angstroms)
 Number     Number       Type             X           Y           Z
 ---------------------------------------------------------------------
      1          8           0        2.410589   -0.997596   -1.015133
      2         16           0        1.938392   -0.135234    0.038848
      3          6           0        0.133859   -0.011624   -0.019595
      4          7           0       -0.404413    1.189251   -0.002420
      5          6           0       -1.748518    1.202744    0.006979
      6          6           0       -2.425298    2.538642   -0.002555
      7          6           0       -2.470926    0.010641    0.009161
      8          6           0       -1.771695   -1.197038   -0.003902
      9          6           0       -2.472302   -2.520098    0.004804
     10          7           0       -0.431470   -1.202523   -0.024824
     11          9           0        2.276623    1.360529   -0.396143
     12          8           0        2.364418   -0.279597    1.409988
     13          1           0       -2.862648    2.736654   -0.988955
     14          1           0       -1.702030    3.327145    0.214645
     15          1           0       -3.236108    2.576969    0.732203
     16          1           0       -3.557328    0.021249    0.021953
     17          1           0       -3.064246   -2.637735    0.919831
     18          1           0       -3.157938   -2.603443   -0.845866
     19          1           0       -1.743179   -3.331005   -0.047577
 ---------------------------------------------------------------------
 Rotational constants (GHZ):           1.3094477           0.6264134           0.4663100
 Standard basis: 6-31G(d) (6D, 7F)
 There are   198 symmetry adapted cartesian basis functions of A   symmetry.
 There are   198 symmetry adapted basis functions of A   symmetry.
   198 basis functions,   388 primitive gaussians,   198 cartesian basis functions
    49 alpha electrons       49 beta electrons
       nuclear repulsion energy       848.2343421105 Hartrees.
 NAtoms=   19 NActive=   19 NUniq=   19 SFac= 1.00D+00 NAtFMM=   60 NAOKFM=F Big=F
 Integral buffers will be    131072 words long.
 Raffenetti 2 integral format.
 Two-electron integral symmetry is turned on.
 R6APFD:  NTU= -4 IXU= 1 FactS= 1.050
 Nuclear repulsion after empirical dispersion term =      848.2191422495 Hartrees.
 One-electron integrals computed using PRISM.
 NBasis=   198 RedAO= T EigKep=  1.17D-03  NBF=   198
 NBsUse=   198 1.00D-06 EigRej= -1.00D+00 NBFU=   198
 Initial guess from the checkpoint file:  "BPDMJOYLYBUPSI-UHFFFAOYSA-N_conf_0_0.chk"
 B after Tr=    -0.000000   -0.000000    0.000000
         Rot=    0.999316    0.032731    0.000818   -0.017219 Ang=   4.24 deg.
 ExpMin= 1.17D-01 ExpMax= 2.19D+04 ExpMxC= 3.30D+03 IAcc=2 IRadAn=         4 AccDes= 0.00D+00
 Harris functional with IExCor= 3731 and IRadAn=       4 diagonalized for initial guess.
 HarFok:  IExCor= 3731 AccDes= 0.00D+00 IRadAn=         4 IDoV= 1 UseB2=F ITyADJ=14
 ICtDFT=  3500011 ScaDFX=  1.000000  1.000000  1.000000  1.000000
 FoFCou: FMM=F IPFlag=           0 FMFlag=      100000 FMFlg1=           0
         NFxFlg=           0 DoJE=T BraDBF=F KetDBF=T FulRan=T
         wScrn=  0.000000 ICntrl=       500 IOpCl=  0 I1Cent=   200000004 NGrid=           0
         NMat0=    1 NMatS0=      1 NMatT0=    0 NMatD0=    1 NMtDS0=    0 NMtDT0=    0
 Petite list used in FoFCou.
 Keep R1 ints in memory in canonical form, NReq=198016058.
 Requested convergence on RMS density matrix=1.00D-08 within  32 cycles.
 Requested convergence on MAX density matrix=1.00D-06.
 Requested convergence on             energy=1.00D-06.
 No special actions if energy rises.
 Integral accuracy reduced to 1.0D-05 until final iterations.
 Initial convergence to 1.0D-05 achieved.  Increase integral accuracy.
 SCF Done:  E(RAPFD) =  -990.214778069     A.U. after   15 cycles
            NFock= 15  Conv=0.35D-08     -V/T= 2.0064
 QCSCF skips out because SCF is already converged.
 R6APFD:  NTU= -4 IXU= 1 FactS= 1.050
 Calling FoFJK, ICntrl=      2127 FMM=F ISym2X=0 I1Cent= 0 IOpClX= 0 NMat=1 NMatS=1 NMatT=0.
 ***** Axes restored to original set *****
 -------------------------------------------------------------------
 Center     Atomic                   Forces (Hartrees/Bohr)
 Number     Number              X              Y              Z
 -------------------------------------------------------------------
      1        8          -0.000312800    0.000334981    0.000367491
      2       16           0.000639160   -0.001483249   -0.000455920
      3        6          -0.001043866   -0.000667152    0.000304514
      4        7           0.001636115    0.000600473   -0.000247388
      5        6           0.000782276    0.000333193    0.000567552
      6        6          -0.000504265    0.000678953   -0.000307563
      7        6          -0.000288005    0.000186397   -0.000154351
      8        6           0.000064912   -0.000924667    0.000470629
      9        6          -0.000888762    0.000295894   -0.000138887
     10        7          -0.000472534   -0.003000329   -0.000392635
     11        9          -0.000204259    0.003521588    0.000689777
     12        8          -0.000387171    0.000650786   -0.000815735
     13        1           0.000090403   -0.000129200   -0.000092347
     14        1           0.000009133    0.000043297   -0.000116760
     15        1           0.000138780   -0.000176182    0.000261705
     16        1           0.000079022   -0.000015546   -0.000046865
     17        1           0.000279874   -0.000194502    0.000250619
     18        1           0.000363319   -0.000247588   -0.000147618
     19        1           0.000018667    0.000192852    0.000003783
 -------------------------------------------------------------------
 Cartesian Forces:  Max     0.003521588 RMS     0.000794797

 GradGradGradGradGradGradGradGradGradGradGradGradGradGradGradGradGradGrad
 Berny optimization.
 Using GEDIIS/GDIIS optimizer.
 FormGI is forming the generalized inverse of G from B-inverse, IUseBI=4.
 Internal  Forces:  Max     0.003984619 RMS     0.000838493
 Search for a local minimum.
 Step number   2 out of a maximum of   95
 All quantities printed in internal units (Hartrees-Bohrs-Radians)
 Mixed Optimization -- En-DIIS/RFO-DIIS
 Update second derivatives using D2CorX and points    1    2
 DE= -7.38D-03 DEPred=-8.19D-03 R= 9.01D-01
 TightC=F SS=  1.41D+00  RLast= 9.66D-01 DXNew= 5.0454D-01 2.8979D+00
 Trust test= 9.01D-01 RLast= 9.66D-01 DXMaxT set to 5.05D-01
 ITU=  1  0
 Use linear search instead of GDIIS.
     Eigenvalues ---   -0.00096  -0.00035  -0.00032   0.01338   0.02004
     Eigenvalues ---    0.02226   0.02382   0.02581   0.02756   0.02853
     Eigenvalues ---    0.05767   0.05793   0.05839   0.05856   0.11346
     Eigenvalues ---    0.12787   0.12803   0.13581   0.13863   0.14155
     Eigenvalues ---    0.14760   0.14829   0.14959   0.15859   0.17181
     Eigenvalues ---    0.17809   0.19069   0.20386   0.20981   0.21552
     Eigenvalues ---    0.21830   0.25470   0.28593   0.30740   0.32652
     Eigenvalues ---    0.33018   0.34741   0.34746   0.34941   0.34977
     Eigenvalues ---    0.35335   0.35371   0.37134   0.37557   0.43801
     Eigenvalues ---    0.45865   0.50641   0.51118   0.56747   0.65547
     Eigenvalues ---    0.65723
 RFO step:  Lambda=-1.06042885D-03 EMin=-9.63419315D-04
 I=     1 Eig=   -9.63D-04 Dot1= -1.71D-04
 I=     1 Stepn= -6.00D-01 RXN=   6.00D-01 EDone=F
 I=     2 Eig=   -3.47D-04 Dot1=  6.34D-05
 I=     2 Stepn=  3.00D-01 RXN=   6.71D-01 EDone=F
 I=     3 Eig=   -3.25D-04 Dot1=  1.49D-05
 I=     3 Stepn=  1.50D-01 RXN=   6.87D-01 EDone=F
 Mixed    3 eigenvectors in step.  Raw Step.Grad=  2.49D-04.
 RFO eigenvector is Hessian eigenvector with negative curvature.
 Taking step of  6.00D-01 in eigenvector direction(s).  Step.Grad= -2.16D-06.
 Quartic linear search produced a step of -0.04570.
 Iteration  1 RMS(Cart)=  0.09912358 RMS(Int)=  0.00771123
 Iteration  2 RMS(Cart)=  0.00847747 RMS(Int)=  0.00004575
 Iteration  3 RMS(Cart)=  0.00005575 RMS(Int)=  0.00003281
 Iteration  4 RMS(Cart)=  0.00000000 RMS(Int)=  0.00003281
 Variable       Old X    -DE/DX   Delta X   Delta X   Delta X     New X
                                 (Linear)    (Quad)   (Total)
    R1        2.72377   0.00041   0.00103  -0.00072   0.00030   2.72407
    R2        3.41985   0.00211  -0.00202  -0.00104  -0.00306   3.41679
    R3        3.01228   0.00313   0.00019  -0.00021  -0.00003   3.01225
    R4        2.72695   0.00088   0.00088   0.00149   0.00237   2.72931
    R5        2.48708   0.00150   0.00295   0.00120   0.00416   2.49124
    R6        2.49119   0.00298   0.00271   0.00111   0.00383   2.49502
    R7        2.54018  -0.00030   0.00021   0.00013   0.00033   2.54051
    R8        2.83002  -0.00014   0.00020   0.00010   0.00030   2.83031
    R9        2.63411   0.00073  -0.00058  -0.00032  -0.00091   2.63320
   R10        2.07308  -0.00006  -0.00022   0.00105   0.00082   2.07390
   R11        2.06320   0.00007   0.00026   0.00010   0.00036   2.06357
   R12        2.06901   0.00006  -0.00004  -0.00116  -0.00120   2.06782
   R13        2.63722   0.00079  -0.00074  -0.00040  -0.00115   2.63608
   R14        2.05324   0.00006  -0.00020  -0.00009  -0.00030   2.05295
   R15        2.82918   0.00001   0.00022   0.00008   0.00030   2.82948
   R16        2.53299   0.00047   0.00045   0.00016   0.00061   2.53360
   R17        2.07139   0.00005  -0.00015   0.00014  -0.00001   2.07138
   R18        2.07068   0.00006  -0.00012  -0.00026  -0.00037   2.07031
   R19        2.06312  -0.00004   0.00026   0.00012   0.00038   2.06350
    A1        1.92188  -0.00024  -0.00080   0.00455   0.00377   1.92565
    A2        1.86748  -0.00172  -0.00195   0.00006  -0.00188   1.86560
    A3        2.13914  -0.00061  -0.00054  -0.00025  -0.00076   2.13837
    A4        1.70992   0.00398   0.00675   0.00231   0.00909   1.71901
    A5        1.90912   0.00094  -0.00021  -0.00481  -0.00499   1.90413
    A6        1.86557  -0.00145  -0.00186  -0.00132  -0.00310   1.86247
    A7        2.05977  -0.00144  -0.00175  -0.00083  -0.00270   2.05707
    A8        1.94554   0.00199   0.00393   0.00080   0.00460   1.95014
    A9        2.27699  -0.00055  -0.00214  -0.00119  -0.00341   2.27357
   A10        2.00227   0.00035   0.00016   0.00016   0.00035   2.00262
   A11        2.04968  -0.00063   0.00003   0.00003   0.00005   2.04974
   A12        2.10557  -0.00010   0.00140   0.00063   0.00204   2.10761
   A13        2.12785   0.00072  -0.00143  -0.00074  -0.00218   2.12567
   A14        1.92506   0.00001  -0.00007  -0.00440  -0.00448   1.92059
   A15        1.92154   0.00002   0.00059   0.00020   0.00078   1.92232
   A16        1.94080   0.00009  -0.00079   0.00397   0.00318   1.94398
   A17        1.88875   0.00008  -0.00005  -0.00569  -0.00576   1.88299
   A18        1.87744  -0.00024   0.00132   0.00056   0.00188   1.87932
   A19        1.90900   0.00004  -0.00098   0.00518   0.00418   1.91319
   A20        2.07191   0.00067  -0.00096  -0.00048  -0.00144   2.07047
   A21        2.10583  -0.00037   0.00049   0.00024   0.00073   2.10656
   A22        2.10545  -0.00030   0.00047   0.00024   0.00070   2.10615
   A23        2.12967   0.00042  -0.00144  -0.00065  -0.00209   2.12758
   A24        2.09979  -0.00007   0.00161   0.00064   0.00226   2.10204
   A25        2.05373  -0.00035  -0.00017   0.00001  -0.00017   2.05356
   A26        1.93094   0.00011  -0.00034  -0.00113  -0.00148   1.92947
   A27        1.93426   0.00015  -0.00049   0.00075   0.00026   1.93452
   A28        1.92153  -0.00020   0.00060   0.00028   0.00088   1.92241
   A29        1.87758  -0.00041   0.00131   0.00059   0.00190   1.87948
   A30        1.89758   0.00018  -0.00046  -0.00113  -0.00159   1.89599
   A31        1.90090   0.00018  -0.00061   0.00064   0.00002   1.90092
   A32        2.00978  -0.00031  -0.00008   0.00015   0.00010   2.00988
    D1       -2.26116  -0.00010   0.01375  -0.22248  -0.20877  -2.46993
    D2        0.92086  -0.00013   0.01191  -0.19441  -0.18247   0.73839
    D3       -0.31601  -0.00029   0.01444  -0.22003  -0.20560  -0.52161
    D4        2.86601  -0.00032   0.01259  -0.19197  -0.17930   2.68671
    D5        1.62333   0.00011   0.01539  -0.22186  -0.20654   1.41679
    D6       -1.47783   0.00008   0.01354  -0.19380  -0.18024  -1.65808
    D7       -3.09636  -0.00029  -0.00207   0.03175   0.02955  -3.06681
    D8       -0.00423  -0.00019   0.00019  -0.00252  -0.00226  -0.00648
    D9        3.08934   0.00027   0.00239  -0.03659  -0.03423   3.05510
   D10       -0.00534   0.00025   0.00024  -0.00405  -0.00382  -0.00916
   D11       -3.11964  -0.00005  -0.00100   0.01282   0.01182  -3.10783
   D12        0.00882   0.00002  -0.00040   0.00583   0.00539   0.01421
   D13        1.85615   0.00006   0.01064  -0.13231  -0.12167   1.73448
   D14       -0.22703  -0.00005   0.01037  -0.12263  -0.11226  -0.33928
   D15       -2.34568  -0.00017   0.01173  -0.13194  -0.12021  -2.46589
   D16       -1.27214   0.00000   0.01003  -0.12524  -0.11521  -1.38735
   D17        2.92787  -0.00011   0.00977  -0.11556  -0.10579   2.82208
   D18        0.80922  -0.00023   0.01112  -0.12487  -0.11375   0.69547
   D19       -0.00433   0.00005   0.00020  -0.00285  -0.00264  -0.00697
   D20        3.13603  -0.00002   0.00025  -0.00351  -0.00324   3.13279
   D21        3.12354   0.00011   0.00083  -0.01015  -0.00933   3.11420
   D22       -0.01929   0.00004   0.00088  -0.01081  -0.00993  -0.02922
   D23        3.13579  -0.00005   0.00026  -0.00344  -0.00317   3.13262
   D24       -0.00570   0.00001   0.00026  -0.00404  -0.00377  -0.00947
   D25       -0.00457   0.00003   0.00021  -0.00278  -0.00257  -0.00714
   D26        3.13712   0.00009   0.00020  -0.00338  -0.00317   3.13395
   D27       -1.08229   0.00018   0.00136  -0.02333  -0.02196  -1.10425
   D28        0.99886  -0.00016   0.00246  -0.02284  -0.02038   0.97848
   D29        3.10303   0.00002   0.00176  -0.02137  -0.01961   3.08342
   D30        2.05920   0.00013   0.00137  -0.02274  -0.02138   2.03783
   D31       -2.14283  -0.00022   0.00246  -0.02225  -0.01980  -2.16263
   D32       -0.03867  -0.00004   0.00177  -0.02079  -0.01902  -0.05769
   D33        0.01000  -0.00015  -0.00046   0.00709   0.00663   0.01663
   D34       -3.13150  -0.00009  -0.00046   0.00651   0.00605  -3.12544
         Item               Value     Threshold  Converged?
 Maximum Force            0.003985     0.000450     NO 
 RMS     Force            0.000838     0.000300     NO 
 Maximum Displacement     0.418553     0.001800     NO 
 RMS     Displacement     0.101443     0.001200     NO 
 Predicted change in Energy=-3.301632D-04
 GradGradGradGradGradGradGradGradGradGradGradGradGradGradGradGradGradGrad

                          Input orientation:                          
 ---------------------------------------------------------------------
 Center     Atomic      Atomic             Coordinates (Angstroms)
 Number     Number       Type             X           Y           Z
 ---------------------------------------------------------------------
      1          8           0       -3.495057    1.607009    0.018972
      2         16           0       -2.285539    1.975803   -0.673149
      3          6           0       -0.936921    0.860299   -0.219205
      4          7           0        0.266253    1.377608   -0.068561
      5          6           0        1.237039    0.481326    0.179659
      6          6           0        2.621022    1.007544    0.405278
      7          6           0        0.949628   -0.880540    0.245743
      8          6           0       -0.368839   -1.295302    0.057311
      9          6           0       -0.757688   -2.740544    0.101632
     10          7           0       -1.337400   -0.396896   -0.171376
     11          9           0       -1.739139    3.301370    0.023410
     12          8           0       -2.246600    2.209036   -2.097951
     13          1           0        2.835176    1.053700    1.480653
     14          1           0        2.709279    2.018507    0.002024
     15          1           0        3.373764    0.361020   -0.055970
     16          1           0        1.736255   -1.604654    0.438313
     17          1           0       -0.267969   -3.295726   -0.706727
     18          1           0       -0.454183   -3.196904    1.050248
     19          1           0       -1.839084   -2.842653   -0.010305
 ---------------------------------------------------------------------
                    Distance matrix (angstroms):
                    1          2          3          4          5
     1  O    0.000000
     2  S    1.441518   0.000000
     3  C    2.675512   1.808088   0.000000
     4  N    3.769315   2.689796   1.318306   0.000000
     5  C    4.866797   3.920370   2.242503   1.344381   0.000000
     6  C    6.157517   5.116138   3.615332   2.430311   1.497738
     7  C    5.098484   4.412409   2.608786   2.380130   1.393431
     8  C    4.265925   3.861015   2.246284   2.750206   2.397962
     9  C    5.138213   5.017823   3.619548   4.246952   3.790181
    10  N    2.950822   2.603929   1.320307   2.393979   2.742669
    11  F    2.440109   1.594012   2.580939   2.780452   4.103011
    12  O    2.530306   1.444291   2.657825   3.335285   4.506465
    13  H    6.520315   5.631239   4.141937   3.017341   2.138747
    14  H    6.217990   5.040425   3.832123   2.526680   2.135877
    15  H    6.981319   5.917444   4.342572   3.269593   2.153041
    16  H    6.152824   5.498167   3.695158   3.363289   2.160424
    17  H    5.914182   5.644531   4.237655   4.746862   4.161352
    18  H    5.778237   5.751596   4.278486   4.764128   4.140958
    19  H    4.747904   4.884281   3.816987   4.716613   4.532931
                    6          7          8          9         10
     6  C    0.000000
     7  C    2.526632   0.000000
     8  C    3.789914   1.394951   0.000000
     9  C    5.055300   2.528896   1.497295   0.000000
    10  N    4.239586   2.374530   1.340724   2.429668   0.000000
    11  F    4.941504   4.976672   4.796693   6.121609   3.725119
    12  O    5.603881   5.025361   4.522336   5.617238   3.365890
    13  H    1.097462   2.970114   4.220122   5.404319   4.716335
    14  H    1.091993   3.400036   4.523184   5.888833   4.715914
    15  H    1.094241   2.740245   4.094303   5.168505   4.773136
    16  H    2.758167   1.086373   2.161546   2.761042   3.358236
    17  H    5.301034   2.867554   2.143741   1.096128   3.135841
    18  H    5.248833   2.825501   2.146927   1.095560   3.180012
    19  H    5.906715   3.419410   2.135530   1.091958   2.501871
                   11         12         13         14         15
    11  F    0.000000
    12  O    2.439444   0.000000
    13  H    5.300937   6.321839   0.000000
    14  H    4.629753   5.385808   1.770041   0.000000
    15  H    5.898621   6.258861   1.769489   1.786663   0.000000
    16  H    6.026573   6.069596   3.059567   3.776826   2.605692
    17  H    6.798465   6.012727   5.773357   6.132488   5.201683
    18  H    6.703214   6.507542   5.391916   6.189246   5.341884
    19  H    6.144929   5.481232   6.265240   6.657224   6.118774
                   16         17         18         19
    16  H    0.000000
    17  H    2.861426   0.000000
    18  H    2.776282   1.769577   0.000000
    19  H    3.810111   1.777268   1.779949   0.000000
 Stoichiometry    C6H7FN2O2S
 Framework group  C1[X(C6H7FN2O2S)]
 Deg. of freedom    51
 Full point group                 C1      NOp   1
 Largest Abelian subgroup         C1      NOp   1
 Largest concise Abelian subgroup C1      NOp   1
                         Standard orientation:                         
 ---------------------------------------------------------------------
 Center     Atomic      Atomic             Coordinates (Angstroms)
 Number     Number       Type             X           Y           Z
 ---------------------------------------------------------------------
      1          8           0        2.418788   -1.171937   -0.803827
      2         16           0        1.937118   -0.125599    0.062859
      3          6           0        0.135329   -0.009663   -0.033570
      4          7           0       -0.407079    1.191579   -0.006327
      5          6           0       -1.751328    1.201735    0.009516
      6          6           0       -2.431695    2.535951   -0.004203
      7          6           0       -2.472947    0.009722    0.014190
      8          6           0       -1.771883   -1.196085   -0.006451
      9          6           0       -2.472689   -2.519167    0.008364
     10          7           0       -0.431622   -1.202020   -0.041196
     11          9           0        2.299936    1.259592   -0.637487
     12          8           0        2.344733   -0.012100    1.443781
     13          1           0       -2.764310    2.778071   -1.021635
     14          1           0       -1.737244    3.315454    0.316049
     15          1           0       -3.313537    2.540759    0.643635
     16          1           0       -3.559077    0.019020    0.035217
     17          1           0       -3.037235   -2.645151    0.939445
     18          1           0       -3.181687   -2.594014   -0.823484
     19          1           0       -1.746214   -3.330466   -0.071638
 ---------------------------------------------------------------------
 Rotational constants (GHZ):           1.3105598           0.6248567           0.4657903
 Standard basis: 6-31G(d) (6D, 7F)
 There are   198 symmetry adapted cartesian basis functions of A   symmetry.
 There are   198 symmetry adapted basis functions of A   symmetry.
   198 basis functions,   388 primitive gaussians,   198 cartesian basis functions
    49 alpha electrons       49 beta electrons
       nuclear repulsion energy       847.8472882859 Hartrees.
 NAtoms=   19 NActive=   19 NUniq=   19 SFac= 1.00D+00 NAtFMM=   60 NAOKFM=F Big=F
 Integral buffers will be    131072 words long.
 Raffenetti 2 integral format.
 Two-electron integral symmetry is turned on.
 R6APFD:  NTU= -4 IXU= 1 FactS= 1.050
 Nuclear repulsion after empirical dispersion term =      847.8320845073 Hartrees.
 One-electron integrals computed using PRISM.
 NBasis=   198 RedAO= T EigKep=  1.18D-03  NBF=   198
 NBsUse=   198 1.00D-06 EigRej= -1.00D+00 NBFU=   198
 Initial guess from the checkpoint file:  "BPDMJOYLYBUPSI-UHFFFAOYSA-N_conf_0_0.chk"
 B after Tr=     0.000000   -0.000000   -0.000000
         Rot=    0.999764    0.021674    0.001184    0.000092 Ang=   2.49 deg.
 ExpMin= 1.17D-01 ExpMax= 2.19D+04 ExpMxC= 3.30D+03 IAcc=2 IRadAn=         4 AccDes= 0.00D+00
 Harris functional with IExCor= 3731 and IRadAn=       4 diagonalized for initial guess.
 HarFok:  IExCor= 3731 AccDes= 0.00D+00 IRadAn=         4 IDoV= 1 UseB2=F ITyADJ=14
 ICtDFT=  3500011 ScaDFX=  1.000000  1.000000  1.000000  1.000000
 FoFCou: FMM=F IPFlag=           0 FMFlag=      100000 FMFlg1=           0
         NFxFlg=           0 DoJE=T BraDBF=F KetDBF=T FulRan=T
         wScrn=  0.000000 ICntrl=       500 IOpCl=  0 I1Cent=   200000004 NGrid=           0
         NMat0=    1 NMatS0=      1 NMatT0=    0 NMatD0=    1 NMtDS0=    0 NMtDT0=    0
 Petite list used in FoFCou.
 Keep R1 ints in memory in canonical form, NReq=198016058.
 Requested convergence on RMS density matrix=1.00D-08 within  32 cycles.
 Requested convergence on MAX density matrix=1.00D-06.
 Requested convergence on             energy=1.00D-06.
 No special actions if energy rises.
 Integral accuracy reduced to 1.0D-05 until final iterations.
 Initial convergence to 1.0D-05 achieved.  Increase integral accuracy.
 SCF Done:  E(RAPFD) =  -990.214917273     A.U. after   14 cycles
            NFock= 14  Conv=0.63D-08     -V/T= 2.0064
 QCSCF skips out because SCF is already converged.
 R6APFD:  NTU= -4 IXU= 1 FactS= 1.050
 Calling FoFJK, ICntrl=      2127 FMM=F ISym2X=0 I1Cent= 0 IOpClX= 0 NMat=1 NMatS=1 NMatT=0.
 ***** Axes restored to original set *****
 -------------------------------------------------------------------
 Center     Atomic                   Forces (Hartrees/Bohr)
 Number     Number              X              Y              Z
 -------------------------------------------------------------------
      1        8           0.000820727    0.000439750    0.000095875
      2       16          -0.002047567   -0.000630341   -0.002706097
      3        6           0.001038798   -0.003378230    0.000690281
      4        7          -0.000398905    0.000422207   -0.000588730
      5        6           0.001172445    0.001246927    0.001055382
      6        6          -0.000916062    0.000951162   -0.000267589
      7        6          -0.000750614    0.000305272   -0.000388995
      8        6          -0.000365444   -0.001277689    0.000909558
      9        6          -0.001304566    0.000438491   -0.000138765
     10        7           0.000292083   -0.001461397   -0.000747386
     11        9           0.001099950    0.003160086    0.001861117
     12        8          -0.000087349    0.000357750    0.000430163
     13        1           0.000058769   -0.000099973   -0.000163125
     14        1           0.000132522    0.000032007   -0.000216377
     15        1           0.000164362   -0.000105912    0.000183899
     16        1           0.000121864   -0.000021676   -0.000116282
     17        1           0.000377127   -0.000304357    0.000297633
     18        1           0.000479841   -0.000378119   -0.000192948
     19        1           0.000112016    0.000304043    0.000002388
 -------------------------------------------------------------------
 Cartesian Forces:  Max     0.003378230 RMS     0.000994897

 GradGradGradGradGradGradGradGradGradGradGradGradGradGradGradGradGradGrad
 Berny optimization.
 Using GEDIIS/GDIIS optimizer.
 FormGI is forming the generalized inverse of G from B-inverse, IUseBI=4.
 Internal  Forces:  Max     0.004504058 RMS     0.000934489
 Search for a local minimum.
 Step number   3 out of a maximum of   95
 All quantities printed in internal units (Hartrees-Bohrs-Radians)
 Mixed Optimization -- En-DIIS/RFO-DIIS
 Swapping is turned off.
 Update second derivatives using D2CorX and points    2    3
 ITU=  0  1  0
     Eigenvalues ---   -0.00034  -0.00033   0.00033   0.01346   0.02011
     Eigenvalues ---    0.02226   0.02404   0.02581   0.02768   0.02966
     Eigenvalues ---    0.05772   0.05799   0.05839   0.05859   0.11346
     Eigenvalues ---    0.12789   0.12804   0.13635   0.13935   0.14657
     Eigenvalues ---    0.14760   0.14829   0.15859   0.16586   0.17187
     Eigenvalues ---    0.19019   0.19391   0.20949   0.21516   0.21850
     Eigenvalues ---    0.24817   0.25990   0.28622   0.30918   0.32672
     Eigenvalues ---    0.33020   0.34744   0.34746   0.34944   0.34989
     Eigenvalues ---    0.35337   0.35372   0.37239   0.38515   0.46009
     Eigenvalues ---    0.50548   0.50819   0.53047   0.61025   0.65559
     Eigenvalues ---    0.73751
 Use linear search instead of GDIIS.
 RFO step:  Lambda=-5.33615097D-04 EMin=-3.40734466D-04
 Quartic linear search produced a step of  0.09740.
 Iteration  1 RMS(Cart)=  0.07744870 RMS(Int)=  0.07332025
 Iteration  2 RMS(Cart)=  0.07277253 RMS(Int)=  0.02091508
 Iteration  3 RMS(Cart)=  0.02790777 RMS(Int)=  0.00100072
 Iteration  4 RMS(Cart)=  0.00104596 RMS(Int)=  0.00005661
 Iteration  5 RMS(Cart)=  0.00000123 RMS(Int)=  0.00005661
[...]
    19  H    0.001543  -0.032309   0.371552  -0.003039  -0.000000   0.000000
              13         14         15         16         17         18
     1  O    0.000000   0.000000  -0.000000  -0.000000   0.000000  -0.000000
     2  S    0.000005   0.000006   0.000002  -0.000001   0.000020   0.000002
     3  C   -0.000260  -0.000071  -0.000227   0.000116   0.000429  -0.000225
     4  N   -0.000382  -0.000526   0.003632   0.004297  -0.000009  -0.000001
     5  C   -0.025139  -0.025152  -0.030118  -0.029128  -0.000198   0.000287
     6  C    0.363245   0.363847   0.371291  -0.003900   0.000002  -0.000007
     7  C   -0.000483  -0.000278  -0.000908   0.356615   0.001392  -0.001558
     8  C   -0.000115  -0.000126   0.000271  -0.031764  -0.032377  -0.030434
     9  C    0.000002   0.000002  -0.000007  -0.004158   0.371550   0.373144
    10  N   -0.000000   0.000003   0.000001   0.004264  -0.003615   0.003635
    11  F    0.000000  -0.000000  -0.000000  -0.000000   0.000000  -0.000000
    12  O   -0.000000   0.000001  -0.000000  -0.000000  -0.000000  -0.000000
    13  H    0.488096  -0.026226  -0.022568   0.000028  -0.000000   0.000000
    14  H   -0.026226   0.485708  -0.022625   0.000018  -0.000000   0.000000
    15  H   -0.022568  -0.022625   0.495604   0.003126   0.000000   0.000000
    16  H    0.000028   0.000018   0.003126   0.513246   0.000042   0.003295
    17  H   -0.000000  -0.000000   0.000000   0.000042   0.498142  -0.023024
    18  H    0.000000   0.000000   0.000000   0.003295  -0.023024   0.500907
    19  H   -0.000000  -0.000000   0.000000   0.000040  -0.028138  -0.022623
              19
     1  O   -0.000001
     2  S    0.000029
     3  C    0.000113
     4  N   -0.000022
     5  C   -0.000174
     6  C    0.000002
     7  C    0.001543
     8  C   -0.032309
     9  C    0.371552
    10  N   -0.003039
    11  F   -0.000000
    12  O    0.000000
    13  H   -0.000000
    14  H   -0.000000
    15  H    0.000000
    16  H    0.000040
    17  H   -0.028138
    18  H   -0.022623
    19  H    0.496675
 Mulliken charges:
               1
     1  O   -0.468061
     2  S    1.238608
     3  C    0.130787
     4  N   -0.420780
     5  C    0.333747
     6  C   -0.585844
     7  C   -0.272236
     8  C    0.265500
     9  C   -0.579130
    10  N   -0.334388
    11  F   -0.303554
    12  O   -0.468996
    13  H    0.223798
    14  H    0.225420
    15  H    0.202526
    16  H    0.183863
    17  H    0.215783
    18  H    0.196603
    19  H    0.216353
 Sum of Mulliken charges =   0.00000
 Mulliken charges with hydrogens summed into heavy atoms:
               1
     1  O   -0.468061
     2  S    1.238608
     3  C    0.130787
     4  N   -0.420780
     5  C    0.333747
     6  C    0.065900
     7  C   -0.088372
     8  C    0.265500
     9  C    0.049609
    10  N   -0.334388
    11  F   -0.303554
    12  O   -0.468996
 Electronic spatial extent (au):  <R**2>=           2382.6844
 Charge=              0.0000 electrons
 Dipole moment (field-independent basis, Debye):
    X=             -7.2283    Y=              0.7106    Z=             -0.6382  Tot=              7.2911
 Quadrupole moment (field-independent basis, Debye-Ang):
   XX=            -73.2037   YY=            -68.4319   ZZ=            -77.7927
   XY=              0.7108   XZ=             -1.9202   YZ=             -1.5706
 Traceless Quadrupole moment (field-independent basis, Debye-Ang):
   XX=             -0.0610   YY=              4.7109   ZZ=             -4.6499
   XY=              0.7108   XZ=             -1.9202   YZ=             -1.5706
 Octapole moment (field-independent basis, Debye-Ang**2):
  XXX=            -19.8894  YYY=             12.0086  ZZZ=             -7.8233  XYY=            -19.7121
  XXY=              7.5569  XXZ=             -7.1686  XZZ=              7.2455  YZZ=             -0.4790
  YYZ=             -0.4774  XYZ=             -3.6490
 Hexadecapole moment (field-independent basis, Debye-Ang**3):
 XXXX=          -1778.4342 YYYY=           -880.6803 ZZZZ=           -180.2449 XXXY=             18.7415
 XXXZ=            -25.2363 YYYX=              7.4512 YYYZ=             -5.4540 ZZZX=            -17.8845
 ZZZY=             -6.1464 XXYY=           -437.7733 XXZZ=           -365.4636 YYZZ=           -178.0150
 XXYZ=            -10.2087 YYXZ=             -1.3039 ZZXY=             -1.9399
 N-N= 8.472671629910D+02 E-N=-4.024382136734D+03  KE= 9.839203199364D+02
 Evaluate density.
 Using the total density.
 Monte-Carlo method of calculating molar volume:
 based on  0.001 e/bohr**3 density envelope.
 Number of points per bohr**3 =   20 CutOff= 1.00D-04
 Using the CI density.
 There are       417 points.  Will hold       417 in memory.
 LenV=   805182732 MDV=   805306368.
 Box volume = 9121.699 fraction occupied=0.120
 Integrated density= 5.6622918370334986D+01 error=-4.1377081629665014D+01
 Molar volume = 1093.729 bohr**3/mol ( 97.603 cm**3/mol)
 Recommended a0 for SCRF calculation =  4.22 angstrom (  7.98 bohr)
 ******************************Gaussian NBO Version 3.1******************************
             N A T U R A L   A T O M I C   O R B I T A L   A N D
          N A T U R A L   B O N D   O R B I T A L   A N A L Y S I S
 ******************************Gaussian NBO Version 3.1******************************
       /RESON  / : Allow strongly delocalized NBO set

 Analyzing the CI density

 Job title: BPDMJOYLYBUPSI-UHFFFAOYSA-N_conf_0                              

 Storage needed:    118912 in NPA ( 805304373 available)


 NATURAL POPULATIONS:  Natural atomic orbital occupancies 
                                                          
   NAO  Atom  No  lang   Type(AO)    Occupancy
 --------------------------------------------
     1    O    1  S      Cor( 1S)     1.99988
     2    O    1  S      Val( 2S)     1.82762
     3    O    1  S      Ryd( 3S)     0.00119
     4    O    1  S      Ryd( 4S)     0.00002
     5    O    1  px     Val( 2p)     1.74881
     6    O    1  px     Ryd( 3p)     0.00086
     7    O    1  py     Val( 2p)     1.54773
     8    O    1  py     Ryd( 3p)     0.00074
     9    O    1  pz     Val( 2p)     1.74327
    10    O    1  pz     Ryd( 3p)     0.00051
    11    O    1  dxy    Ryd( 3d)     0.00572
    12    O    1  dxz    Ryd( 3d)     0.00144
    13    O    1  dyz    Ryd( 3d)     0.00548
    14    O    1  dx2y2  Ryd( 3d)     0.00570
    15    O    1  dz2    Ryd( 3d)     0.00272
 
    16    S    2  S      Cor( 1S)     2.00000
    17    S    2  S      Cor( 2S)     1.99923
    18    S    2  S      Val( 3S)     1.04829
    19    S    2  S      Ryd( 4S)     0.00496
    20    S    2  S      Ryd( 5S)     0.00026
    21    S    2  px     Cor( 2p)     1.99992
    22    S    2  px     Val( 3p)     0.90776
    23    S    2  px     Ryd( 4p)     0.00935
    24    S    2  py     Cor( 2p)     1.99988
    25    S    2  py     Val( 3p)     0.71151
    26    S    2  py     Ryd( 4p)     0.01198
    27    S    2  pz     Cor( 2p)     1.99989
    28    S    2  pz     Val( 3p)     0.74065
    29    S    2  pz     Ryd( 4p)     0.01109
    30    S    2  dxy    Ryd( 3d)     0.02498
    31    S    2  dxz    Ryd( 3d)     0.02735
    32    S    2  dyz    Ryd( 3d)     0.04148
    33    S    2  dx2y2  Ryd( 3d)     0.04021
    34    S    2  dz2    Ryd( 3d)     0.03735
 
    35    C    3  S      Cor( 1S)     1.99904
    36    C    3  S      Val( 2S)     0.88378
    37    C    3  S      Ryd( 3S)     0.00422
    38    C    3  S      Ryd( 4S)     0.00026
    39    C    3  px     Val( 2p)     1.05032
    40    C    3  px     Ryd( 3p)     0.00977
    41    C    3  py     Val( 2p)     0.86312
    42    C    3  py     Ryd( 3p)     0.01694
    43    C    3  pz     Val( 2p)     1.14760
    44    C    3  pz     Ryd( 3p)     0.00713
    45    C    3  dxy    Ryd( 3d)     0.00102
    46    C    3  dxz    Ryd( 3d)     0.00096
    47    C    3  dyz    Ryd( 3d)     0.00192
    48    C    3  dx2y2  Ryd( 3d)     0.00202
    49    C    3  dz2    Ryd( 3d)     0.00038
 
    50    N    4  S      Cor( 1S)     1.99907
    51    N    4  S      Val( 2S)     1.32245
    52    N    4  S      Ryd( 3S)     0.00082
    53    N    4  S      Ryd( 4S)     0.00002
    54    N    4  px     Val( 2p)     1.30361
    55    N    4  px     Ryd( 3p)     0.00424
    56    N    4  py     Val( 2p)     1.24894
    57    N    4  py     Ryd( 3p)     0.00457
    58    N    4  pz     Val( 2p)     1.46737
    59    N    4  pz     Ryd( 3p)     0.00496
    60    N    4  dxy    Ryd( 3d)     0.00217
    61    N    4  dxz    Ryd( 3d)     0.00166
    62    N    4  dyz    Ryd( 3d)     0.00223
    63    N    4  dx2y2  Ryd( 3d)     0.00274
    64    N    4  dz2    Ryd( 3d)     0.00158
 
    65    C    5  S      Cor( 1S)     1.99908
    66    C    5  S      Val( 2S)     0.86710
    67    C    5  S      Ryd( 3S)     0.00158
    68    C    5  S      Ryd( 4S)     0.00010
    69    C    5  px     Val( 2p)     0.91253
    70    C    5  px     Ryd( 3p)     0.00637
    71    C    5  py     Val( 2p)     1.07015
    72    C    5  py     Ryd( 3p)     0.00669
    73    C    5  pz     Val( 2p)     0.85030
    74    C    5  pz     Ryd( 3p)     0.00116
    75    C    5  dxy    Ryd( 3d)     0.00107
    76    C    5  dxz    Ryd( 3d)     0.00188
    77    C    5  dyz    Ryd( 3d)     0.00101
    78    C    5  dx2y2  Ryd( 3d)     0.00100
    79    C    5  dz2    Ryd( 3d)     0.00033
 
    80    C    6  S      Cor( 1S)     1.99933
    81    C    6  S      Val( 2S)     1.11097
    82    C    6  S      Ryd( 3S)     0.00049
    83    C    6  S      Ryd( 4S)     0.00001
    84    C    6  px     Val( 2p)     1.24149
    85    C    6  px     Ryd( 3p)     0.00314
    86    C    6  py     Val( 2p)     1.09795
    87    C    6  py     Ryd( 3p)     0.00144
    88    C    6  pz     Val( 2p)     1.27302
    89    C    6  pz     Ryd( 3p)     0.00070
    90    C    6  dxy    Ryd( 3d)     0.00042
    91    C    6  dxz    Ryd( 3d)     0.00044
    92    C    6  dyz    Ryd( 3d)     0.00074
    93    C    6  dx2y2  Ryd( 3d)     0.00077
    94    C    6  dz2    Ryd( 3d)     0.00064
 
    95    C    7  S      Cor( 1S)     1.99893
    96    C    7  S      Val( 2S)     0.96322
    97    C    7  S      Ryd( 3S)     0.00067
    98    C    7  S      Ryd( 4S)     0.00004
    99    C    7  px     Val( 2p)     1.22283
   100    C    7  px     Ryd( 3p)     0.00352
   101    C    7  py     Val( 2p)     1.00310
   102    C    7  py     Ryd( 3p)     0.00329
   103    C    7  pz     Val( 2p)     1.18645
   104    C    7  pz     Ryd( 3p)     0.00449
   105    C    7  dxy    Ryd( 3d)     0.00061
   106    C    7  dxz    Ryd( 3d)     0.00049
   107    C    7  dyz    Ryd( 3d)     0.00047
   108    C    7  dx2y2  Ryd( 3d)     0.00068
   109    C    7  dz2    Ryd( 3d)     0.00046
 
   110    C    8  S      Cor( 1S)     1.99907
   111    C    8  S      Val( 2S)     0.85288
   112    C    8  S      Ryd( 3S)     0.00154
   113    C    8  S      Ryd( 4S)     0.00011
   114    C    8  px     Val( 2p)     0.89447
   115    C    8  px     Ryd( 3p)     0.00595
   116    C    8  py     Val( 2p)     1.06195
   117    C    8  py     Ryd( 3p)     0.00589
   118    C    8  pz     Val( 2p)     1.00819
   119    C    8  pz     Ryd( 3p)     0.00465
   120    C    8  dxy    Ryd( 3d)     0.00098
   121    C    8  dxz    Ryd( 3d)     0.00111
   122    C    8  dyz    Ryd( 3d)     0.00088
   123    C    8  dx2y2  Ryd( 3d)     0.00097
   124    C    8  dz2    Ryd( 3d)     0.00035
 
   125    C    9  S      Cor( 1S)     1.99936
   126    C    9  S      Val( 2S)     1.10942
   127    C    9  S      Ryd( 3S)     0.00048
   128    C    9  S      Ryd( 4S)     0.00001
   129    C    9  px     Val( 2p)     1.22688
   130    C    9  px     Ryd( 3p)     0.00301
   131    C    9  py     Val( 2p)     1.11347
   132    C    9  py     Ryd( 3p)     0.00150
   133    C    9  pz     Val( 2p)     1.26959
   134    C    9  pz     Ryd( 3p)     0.00071
   135    C    9  dxy    Ryd( 3d)     0.00045
   136    C    9  dxz    Ryd( 3d)     0.00039
   137    C    9  dyz    Ryd( 3d)     0.00102
   138    C    9  dx2y2  Ryd( 3d)     0.00069
   139    C    9  dz2    Ryd( 3d)     0.00064
 
   140    N   10  S      Cor( 1S)     1.99905
   141    N   10  S      Val( 2S)     1.32892
   142    N   10  S      Ryd( 3S)     0.00067
   143    N   10  S      Ryd( 4S)     0.00002
   144    N   10  px     Val( 2p)     1.30885
   145    N   10  px     Ryd( 3p)     0.00334
   146    N   10  py     Val( 2p)     1.25706
   147    N   10  py     Ryd( 3p)     0.00480
   148    N   10  pz     Val( 2p)     1.29557
   149    N   10  pz     Ryd( 3p)     0.00072
   150    N   10  dxy    Ryd( 3d)     0.00211
   151    N   10  dxz    Ryd( 3d)     0.00190
   152    N   10  dyz    Ryd( 3d)     0.00237
   153    N   10  dx2y2  Ryd( 3d)     0.00235
   154    N   10  dz2    Ryd( 3d)     0.00152
 
   155    F   11  S      Cor( 1S)     1.99997
   156    F   11  S      Val( 2S)     1.92752
   157    F   11  S      Ryd( 3S)     0.00247
   158    F   11  S      Ryd( 4S)     0.00012
   159    F   11  px     Val( 2p)     1.93925
   160    F   11  px     Ryd( 3p)     0.00019
   161    F   11  py     Val( 2p)     1.83512
   162    F   11  py     Ryd( 3p)     0.00030
   163    F   11  pz     Val( 2p)     1.79135
   164    F   11  pz     Ryd( 3p)     0.00034
   165    F   11  dxy    Ryd( 3d)     0.00095
   166    F   11  dxz    Ryd( 3d)     0.00121
   167    F   11  dyz    Ryd( 3d)     0.00178
   168    F   11  dx2y2  Ryd( 3d)     0.00091
   169    F   11  dz2    Ryd( 3d)     0.00172
 
   170    O   12  S      Cor( 1S)     1.99988
   171    O   12  S      Val( 2S)     1.83071
   172    O   12  S      Ryd( 3S)     0.00138
   173    O   12  S      Ryd( 4S)     0.00002
   174    O   12  px     Val( 2p)     1.76487
   175    O   12  px     Ryd( 3p)     0.00092
   176    O   12  py     Val( 2p)     1.71180
   177    O   12  py     Ryd( 3p)     0.00055
   178    O   12  pz     Val( 2p)     1.55977
   179    O   12  pz     Ryd( 3p)     0.00070
   180    O   12  dxy    Ryd( 3d)     0.00184
   181    O   12  dxz    Ryd( 3d)     0.00518
   182    O   12  dyz    Ryd( 3d)     0.00561
   183    O   12  dx2y2  Ryd( 3d)     0.00174
   184    O   12  dz2    Ryd( 3d)     0.00643
 
   185    H   13  S      Val( 1S)     0.72119
   186    H   13  S      Ryd( 2S)     0.00111
 
   187    H   14  S      Val( 1S)     0.72027
   188    H   14  S      Ryd( 2S)     0.00113
 
   189    H   15  S      Val( 1S)     0.73929
   190    H   15  S      Ryd( 2S)     0.00049
 
   191    H   16  S      Val( 1S)     0.73719
   192    H   16  S      Ryd( 2S)     0.00074
 
   193    H   17  S      Val( 1S)     0.72984
   194    H   17  S      Ryd( 2S)     0.00102
 
   195    H   18  S      Val( 1S)     0.74232
   196    H   18  S      Ryd( 2S)     0.00048
 
   197    H   19  S      Val( 1S)     0.72953
   198    H   19  S      Ryd( 2S)     0.00101

 WARNING:  1 low occupancy (<1.9990e) core orbital  found on  C    7


 Summary of Natural Population Analysis:                  
                                                          
                                       Natural Population 
                Natural  -----------------------------------------------
    Atom  No    Charge         Core      Valence    Rydberg      Total
 -----------------------------------------------------------------------
      O    1   -0.89169      1.99988     6.86743    0.02438     8.89169
      S    2    2.38386      9.99892     3.40822    0.20901    13.61614
      C    3    0.01151      1.99904     3.94482    0.04463     5.98849
      N    4   -0.36641      1.99907     5.34236    0.02498     7.36641
      C    5    0.27965      1.99908     3.70007    0.02119     5.72035
      C    6   -0.73156      1.99933     4.72343    0.00880     6.73156
      C    7   -0.38928      1.99893     4.37561    0.01474     6.38928
      C    8    0.16101      1.99907     3.81749    0.02243     5.83899
      C    9   -0.72762      1.99936     4.71936    0.00890     6.72762
      N   10   -0.20926      1.99905     5.19040    0.01981     7.20926
      F   11   -0.50319      1.99997     7.49324    0.00998     9.50319
      O   12   -0.89140      1.99988     6.86715    0.02437     8.89140
      H   13    0.27770      0.00000     0.72119    0.00111     0.72230
      H   14    0.27860      0.00000     0.72027    0.00113     0.72140
      H   15    0.26022      0.00000     0.73929    0.00049     0.73978
      H   16    0.26207      0.00000     0.73719    0.00074     0.73793
      H   17    0.26914      0.00000     0.72984    0.00102     0.73086
      H   18    0.25720      0.00000     0.74232    0.00048     0.74280
      H   19    0.26946      0.00000     0.72953    0.00101     0.73054
 =======================================================================
   * Total *    0.00000     31.99159    65.56920    0.43921    98.00000

                                 Natural Population      
 --------------------------------------------------------
   Core                      31.99159 ( 99.9737% of  32)
   Valence                   65.56920 ( 99.3473% of  66)
   Natural Minimal Basis     97.56079 ( 99.5518% of  98)
   Natural Rydberg Basis      0.43921 (  0.4482% of  98)
 --------------------------------------------------------

    Atom  No          Natural Electron Configuration
 ----------------------------------------------------------------------------
      O    1      [core]2S( 1.83)2p( 5.04)3d( 0.02)
      S    2      [core]3S( 1.05)3p( 2.36)3d( 0.17)4p( 0.03)
      C    3      [core]2S( 0.88)2p( 3.06)3p( 0.03)3d( 0.01)
      N    4      [core]2S( 1.32)2p( 4.02)3p( 0.01)3d( 0.01)
      C    5      [core]2S( 0.87)2p( 2.83)3p( 0.01)3d( 0.01)
      C    6      [core]2S( 1.11)2p( 3.61)3p( 0.01)
      C    7      [core]2S( 0.96)2p( 3.41)3p( 0.01)
      C    8      [core]2S( 0.85)2p( 2.96)3p( 0.02)
      C    9      [core]2S( 1.11)2p( 3.61)3p( 0.01)
      N   10      [core]2S( 1.33)2p( 3.86)3p( 0.01)3d( 0.01)
      F   11      [core]2S( 1.93)2p( 5.57)3d( 0.01)
      O   12      [core]2S( 1.83)2p( 5.04)3d( 0.02)
      H   13            1S( 0.72)
      H   14            1S( 0.72)
      H   15            1S( 0.74)
      H   16            1S( 0.74)
      H   17            1S( 0.73)
      H   18            1S( 0.74)
      H   19            1S( 0.73)


 NBO analysis skipped by request.
 1\1\GINC-DELLA-R3C3N8\SP\RAPFD TD-FC\6-31G(d)\C6H7F1N2O2S1\SHIVAANI\28
 -Jan-2024\0\\# TD(NStates=10, Root=1) APFD/6-31G* volume pop=NPA densi
 ty=current Geom=AllCheck Guess=Read\\BPDMJOYLYBUPSI-UHFFFAOYSA-N_conf_
 0\\0,1\O,0,-3.5363223733,1.4426535303,-0.4871739116\S,0,-2.2320372125,
 2.0027917035,-0.7323824211\C,0,-0.9324875749,0.8169394012,-0.277319511
 7\N,0,0.261368129,1.3489615201,-0.0992905268\C,0,1.2329284695,0.471356
 3546,0.1932352617\C,0,2.6020525701,1.0312778083,0.4148394334\C,0,0.950
 8691195,-0.8937037982,0.2790579238\C,0,-0.3566305605,-1.3242921125,0.0
 559581513\C,0,-0.7587444158,-2.7634970678,0.1158002543\N,0,-1.32730608
 7,-0.4384907607,-0.227209023\F,0,-1.9625668924,3.0694638171,0.43551750
 15\O,0,-1.8791698999,2.6518684955,-1.9722194729\H,0,2.5870562558,1.731
 4462763,1.2573087741\H,0,2.9195344527,1.5998035001,-0.4657540582\H,0,3
 .3363936456,0.2477792714,0.6181905107\H,0,1.7360563739,-1.6066794205,0
 .5120308769\H,0,-1.179937921,-3.0734247607,-0.8467998247\H,0,0.0846150
 101,-3.4140188488,0.360893343\H,0,-1.5456710891,-2.9002349092,0.865316
 7193\\Version=ES64L-G16RevA.03\State=1-A\HF=-990.216035\RMSD=7.673e-09
 \Dipole=2.1342772,-1.722735,0.840005\Quadrupole=1.0762464,2.6405775,-3
 .7168239,1.4404983,0.5500026,1.5623481\PG=C01 [X(C6H7F1N2O2S1)]\\@


 HE WHO LAUGHS LAST PROBABLY DIDN'T GET THE JOKE.
 Job cpu time:       0 days  0 hours 11 minutes  0.0 seconds.
 Elapsed time:       0 days  0 hours  3 minutes 46.3 seconds.
 File lengths (MBytes):  RWF=    374 Int=      0 D2E=      0 Chk=     24 Scr=      1
 Normal termination of Gaussian 16 at Sun Jan 28 15:28:06 2024.
