 Entering Gaussian System, Link 0=g16
 Input=FCFXLXGZHDHJLB-UHFFFAOYSA-N_conf_0.gjf
 Output=FCFXLXGZHDHJLB-UHFFFAOYSA-N_conf_0.log
 Initial command:
 /opt/export/g16/l1.exe "/tmp/Gau-2596102.inp" -scrdir="/tmp/"
 Entering Link 1 = /opt/export/g16/l1.exe PID=   2596103.
  
 Copyright (c) 1988,1990,1992,1993,1995,1998,2003,2009,2016,
            Gaussian, Inc.  All Rights Reserved.
  
 This is part of the Gaussian(R) 16 program.  It is based on
 the Gaussian(R) 09 system (copyright 2009, Gaussian, Inc.),
 the Gaussian(R) 03 system (copyright 2003, Gaussian, Inc.),
 the Gaussian(R) 98 system (copyright 1998, Gaussian, Inc.),
 the Gaussian(R) 94 system (copyright 1995, Gaussian, Inc.),
 the Gaussian 92(TM) system (copyright 1992, Gaussian, Inc.),
 the Gaussian 90(TM) system (copyright 1990, Gaussian, Inc.),
 the Gaussian 88(TM) system (copyright 1988, Gaussian, Inc.),
 the Gaussian 86(TM) system (copyright 1986, Carnegie Mellon
 University), and the Gaussian 82(TM) system (copyright 1983,
 Carnegie Mellon University). Gaussian is a federally registered
 trademark of Gaussian, Inc.
  
 This software contains proprietary and confidential information,
 including trade secrets, belonging to Gaussian, Inc.
  
 This software is provided under written license and may be
 used, copied, transmitted, or stored only in accord with that
 written license.
  
 The following legend is applicable only to US Government
 contracts under FAR:
  
                    RESTRICTED RIGHTS LEGEND
  
 Use, reproduction and disclosure by the US Government is
 subject to restrictions as set forth in subparagraphs (a)
 and (c) of the Commercial Computer Software - Restricted
 Rights clause in FAR 52.227-19.
  
 Gaussian, Inc.
 340 Quinnipiac St., Bldg. 40, Wallingford CT 06492
  
  
 ---------------------------------------------------------------
 Warning -- This program may not be used in any manner that
 competes with the business of Gaussian, Inc. or will provide
 assistance to any competitor of Gaussian, Inc.  The licensee
 of this program is prohibited from giving any competitor of
 Gaussian, Inc. access to this program.  By using this program,
 the user acknowledges that Gaussian, Inc. is engaged in the
 business of creating and licensing software in the field of
 computational chemistry and represents and warrants to the
 licensee that it is not a competitor of Gaussian, Inc. and that
 it will not use this program in any manner prohibited above.
 ---------------------------------------------------------------
  

 Cite this work as:
 Gaussian 16, Revision A.03,
 M. J. Frisch, G. W. Trucks, H. B. Schlegel, G. E. Scuseria, 
 M. A. Robb, J. R. Cheeseman, G. Scalmani, V. Barone, 
 G. A. Petersson, H. Nakatsuji, X. Li, M. Caricato, A. V. Marenich, 
 J. Bloino, B. G. Janesko, R. Gomperts, B. Mennucci, H. P. Hratchian, 
 J. V. Ortiz, A. F. Izmaylov, J. L. Sonnenberg, D. Williams-Young, 
 F. Ding, F. Lipparini, F. Egidi, J. Goings, B. Peng, A. Petrone, 
 T. Henderson, D. Ranasinghe, V. G. Zakrzewski, J. Gao, N. Rega, 
 G. Zheng, W. Liang, M. Hada, M. Ehara, K. Toyota, R. Fukuda, 
 J. Hasegawa, M. Ishida, T. Nakajima, Y. Honda, O. Kitao, H. Nakai, 
 T. Vreven, K. Throssell, J. A. Montgomery, Jr., J. E. Peralta, 
 F. Ogliaro, M. J. Bearpark, J. J. Heyd, E. N. Brothers, K. N. Kudin, 
 V. N. Staroverov, T. A. Keith, R. Kobayashi, J. Normand, 
 K. Raghavachari, A. P. Rendell, J. C. Burant, S. S. Iyengar, 
 J. Tomasi, M. Cossi, J. M. Millam, M. Klene, C. Adamo, R. Cammi, 
 J. W. Ochterski, R. L. Martin, K. Morokuma, O. Farkas, 
 J. B. Foresman, and D. J. Fox, Gaussian, Inc., Wallingford CT, 2016.
 
 ******************************************
 Gaussian 16:  ES64L-G16RevA.03 25-Dec-2016
                28-Jan-2024 
 ******************************************
 %nprocshared=2
 Will use up to    2 processors via shared memory.
 %mem=4GB
 %Chk=FCFXLXGZHDHJLB-UHFFFAOYSA-N_conf_0_0.chk
 --------------------------------
 # opt=CalcFc APFD/6-31G* scf=xqc
 --------------------------------
 1/10=4,18=20,19=15,26=3,38=1/1,3;
 2/9=110,12=2,17=6,18=5,40=1/2;
 3/5=1,6=6,7=1,11=2,25=1,30=1,71=2,74=-44,140=1/1,2,3;
 4//1;
 5/5=2,8=3,13=1,38=5/2,8;
 8/6=4,10=90,11=11/1;
 11/6=1,8=1,9=11,15=111,16=1/1,2,10;
 10/6=1,13=1/2;
 6/7=2,8=2,9=2,10=2,28=1/1;
 7/10=1,18=20,25=1/1,2,3,16;
 1/10=4,18=20,19=15,26=3/3(2);
 2/9=110/2;
 99//99;
 2/9=110/2;
 3/5=1,6=6,7=1,11=2,25=1,30=1,71=1,74=-44/1,2,3;
 4/5=5,16=3,69=1/1;
 5/5=2,8=3,13=1,38=5/2,8;
 7//1,2,3,16;
 1/18=20,19=15,26=3/3(-5);
 2/9=110/2;
 6/7=2,8=2,9=2,10=2,19=2,28=1/1;
 99/9=1/99;
 ----------------------------------
 FCFXLXGZHDHJLB-UHFFFAOYSA-N_conf_0
 ----------------------------------
 Symbolic Z-matrix:
 Charge =  0 Multiplicity = 1
 F                     2.78455  -1.66943  -0.45996 
 S                     2.37638  -0.18878  -0.04141 
 C                     0.60253  -0.10419  -0.02648 
 N                    -0.02631  -1.26339  -0.35897 
 C                    -1.37486  -1.21725  -0.35281 
 C                    -2.10592  -0.08054  -0.0337 
 C                    -1.42018   1.08647   0.30131 
 C                    -0.02995   1.08375   0.30768 
 O                     2.84055  -0.02707   1.32416 
 O                     2.85305   0.66546  -1.11354 
 H                    -1.87482  -2.14518  -0.61894 
 H                    -3.19099  -0.10354  -0.04582 
 H                    -1.96911   1.98992   0.5551 
 H                     0.53509   1.97377   0.56339 
 

 GradGradGradGradGradGradGradGradGradGradGradGradGradGradGradGradGradGrad
 Berny optimization.
 Initialization pass.
                           ----------------------------
                           !    Initial Parameters    !
                           ! (Angstroms and Degrees)  !
 --------------------------                            --------------------------
 ! Name  Definition              Value          Derivative Info.                !
 --------------------------------------------------------------------------------
 ! R1    R(1,2)                  1.5919         calculate D2E/DX2 analytically  !
 ! R2    R(2,3)                  1.7759         calculate D2E/DX2 analytically  !
 ! R3    R(2,9)                  1.4513         calculate D2E/DX2 analytically  !
 ! R4    R(2,10)                 1.4513         calculate D2E/DX2 analytically  !
 ! R5    R(3,4)                  1.36           calculate D2E/DX2 analytically  !
 ! R6    R(3,8)                  1.3867         calculate D2E/DX2 analytically  !
 ! R7    R(4,5)                  1.3494         calculate D2E/DX2 analytically  !
 ! R8    R(5,6)                  1.3887         calculate D2E/DX2 analytically  !
 ! R9    R(5,11)                 1.0871         calculate D2E/DX2 analytically  !
 ! R10   R(6,7)                  1.3944         calculate D2E/DX2 analytically  !
 ! R11   R(6,12)                 1.0854         calculate D2E/DX2 analytically  !
 ! R12   R(7,8)                  1.3902         calculate D2E/DX2 analytically  !
 ! R13   R(7,13)                 1.0872         calculate D2E/DX2 analytically  !
 ! R14   R(8,14)                 1.0848         calculate D2E/DX2 analytically  !
 ! A1    A(1,2,3)              107.6151         calculate D2E/DX2 analytically  !
 ! A2    A(1,2,9)              105.6058         calculate D2E/DX2 analytically  !
 ! A3    A(1,2,10)             105.6057         calculate D2E/DX2 analytically  !
 ! A4    A(3,2,9)              107.8322         calculate D2E/DX2 analytically  !
 ! A5    A(3,2,10)             107.832          calculate D2E/DX2 analytically  !
 ! A6    A(9,2,10)             121.6303         calculate D2E/DX2 analytically  !
 ! A7    A(2,3,4)              114.7823         calculate D2E/DX2 analytically  !
 ! A8    A(2,3,8)              119.8945         calculate D2E/DX2 analytically  !
 ! A9    A(4,3,8)              125.3232         calculate D2E/DX2 analytically  !
 ! A10   A(3,4,5)              115.5837         calculate D2E/DX2 analytically  !
 ! A11   A(4,5,6)              123.7225         calculate D2E/DX2 analytically  !
 ! A12   A(4,5,11)             115.424          calculate D2E/DX2 analytically  !
 ! A13   A(6,5,11)             120.8535         calculate D2E/DX2 analytically  !
 ! A14   A(5,6,7)              118.7758         calculate D2E/DX2 analytically  !
 ! A15   A(5,6,12)             120.4229         calculate D2E/DX2 analytically  !
 ! A16   A(7,6,12)             120.8013         calculate D2E/DX2 analytically  !
 ! A17   A(6,7,8)              119.422          calculate D2E/DX2 analytically  !
 ! A18   A(6,7,13)             120.2156         calculate D2E/DX2 analytically  !
 ! A19   A(8,7,13)             120.3624         calculate D2E/DX2 analytically  !
 ! A20   A(3,8,7)              117.1727         calculate D2E/DX2 analytically  !
 ! A21   A(3,8,14)             121.4724         calculate D2E/DX2 analytically  !
 ! A22   A(7,8,14)             121.3549         calculate D2E/DX2 analytically  !
 ! D1    D(1,2,3,4)              0.0024         calculate D2E/DX2 analytically  !
 ! D2    D(1,2,3,8)           -179.9967         calculate D2E/DX2 analytically  !
 ! D3    D(9,2,3,4)           -113.4904         calculate D2E/DX2 analytically  !
 ! D4    D(9,2,3,8)             66.5106         calculate D2E/DX2 analytically  !
 ! D5    D(10,2,3,4)           113.4951         calculate D2E/DX2 analytically  !
 ! D6    D(10,2,3,8)           -66.504          calculate D2E/DX2 analytically  !
 ! D7    D(2,3,4,5)           -179.999          calculate D2E/DX2 analytically  !
 ! D8    D(8,3,4,5)              0.0001         calculate D2E/DX2 analytically  !
 ! D9    D(2,3,8,7)            179.999          calculate D2E/DX2 analytically  !
 ! D10   D(2,3,8,14)            -0.001          calculate D2E/DX2 analytically  !
 ! D11   D(4,3,8,7)              0.0            calculate D2E/DX2 analytically  !
 ! D12   D(4,3,8,14)          -180.0            calculate D2E/DX2 analytically  !
 ! D13   D(3,4,5,6)              0.0            calculate D2E/DX2 analytically  !
 ! D14   D(3,4,5,11)           180.0            calculate D2E/DX2 analytically  !
 ! D15   D(4,5,6,7)             -0.0001         calculate D2E/DX2 analytically  !
 ! D16   D(4,5,6,12)           179.9999         calculate D2E/DX2 analytically  !
 ! D17   D(11,5,6,7)           179.9999         calculate D2E/DX2 analytically  !
 ! D18   D(11,5,6,12)           -0.0001         calculate D2E/DX2 analytically  !
 ! D19   D(5,6,7,8)              0.0001         calculate D2E/DX2 analytically  !
 ! D20   D(5,6,7,13)          -179.9997         calculate D2E/DX2 analytically  !
 ! D21   D(12,6,7,8)          -179.9998         calculate D2E/DX2 analytically  !
 ! D22   D(12,6,7,13)            0.0004         calculate D2E/DX2 analytically  !
 ! D23   D(6,7,8,3)             -0.0001         calculate D2E/DX2 analytically  !
 ! D24   D(6,7,8,14)           179.9999         calculate D2E/DX2 analytically  !
 ! D25   D(13,7,8,3)           179.9997         calculate D2E/DX2 analytically  !
 ! D26   D(13,7,8,14)           -0.0003         calculate D2E/DX2 analytically  !
 --------------------------------------------------------------------------------
 Trust Radius=3.00D-01 FncErr=1.00D-07 GrdErr=1.00D-06 EigMax=2.50D+02 EigMin=1.00D-04
 Number of steps in this run=     72 maximum allowed number of steps=    100.
 GradGradGradGradGradGradGradGradGradGradGradGradGradGradGradGradGradGrad

                          Input orientation:                          
 ---------------------------------------------------------------------
 Center     Atomic      Atomic             Coordinates (Angstroms)
 Number     Number       Type             X           Y           Z
 ---------------------------------------------------------------------
      1          9           0        2.784550   -1.669432   -0.459960
      2         16           0        2.376378   -0.188781   -0.041414
      3          6           0        0.602527   -0.104190   -0.026483
      4          7           0       -0.026312   -1.263391   -0.358973
      5          6           0       -1.374864   -1.217253   -0.352806
      6          6           0       -2.105923   -0.080536   -0.033698
      7          6           0       -1.420176    1.086472    0.301305
      8          6           0       -0.029951    1.083749    0.307682
      9          8           0        2.840550   -0.027070    1.324159
     10          8           0        2.853052    0.665455   -1.113541
     11          1           0       -1.874820   -2.145176   -0.618942
     12          1           0       -3.190990   -0.103541   -0.045816
     13          1           0       -1.969111    1.989919    0.555099
     14          1           0        0.535091    1.973774    0.563388
 ---------------------------------------------------------------------
                    Distance matrix (angstroms):
                    1          2          3          4          5
     1  F    0.000000
     2  S    1.591889   0.000000
     3  C    2.720130   1.775929   0.000000
     4  N    2.841833   2.651141   1.360049   0.000000
     5  C    4.185293   3.902119   2.292481   1.349355   0.000000
     6  C    5.159750   4.483614   2.708563   2.414483   1.388669
     7  C    5.084708   4.019646   2.369905   2.810815   2.395216
     8  C    4.011321   2.744380   1.386685   2.439981   2.745842
     9  O    2.425607   1.451343   2.615134   3.546875   4.690252
    10  O    2.425605   1.451342   2.615131   3.546908   4.690264
    11  H    4.686293   4.715263   3.264028   2.064488   1.087118
    12  H    6.191172   5.568022   3.793567   3.385041   2.152419
    13  H    6.084282   4.897534   3.367024   3.897950   3.385760
    14  H    4.402301   2.903923   2.161118   3.412501   3.830142
                    6          7          8          9         10
     6  C    0.000000
     7  C    1.394411   0.000000
     8  C    2.404529   1.390243   0.000000
     9  O    5.129739   4.521061   3.241437   0.000000
    10  O    5.129717   4.521009   3.241380   2.534192   0.000000
    11  H    2.158392   3.390738   3.832510   5.522384   5.522413
    12  H    1.085379   2.161575   3.395113   6.185641   6.185615
    13  H    2.156892   1.087178   2.154693   5.271862   5.271794
    14  H    3.398773   2.163114   1.084805   3.145996   3.145907
                   11         12         13         14
    11  H    0.000000
    12  H    2.495806   0.000000
    13  H    4.299567   2.497331   0.000000
    14  H    4.916434   4.309298   2.504268   0.000000
 Stoichiometry    C5H4FNO2S
 Framework group  C1[X(C5H4FNO2S)]
 Deg. of freedom    36
 Full point group                 C1      NOp   1
 Largest Abelian subgroup         C1      NOp   1
 Largest concise Abelian subgroup C1      NOp   1
                         Standard orientation:                         
 ---------------------------------------------------------------------
 Center     Atomic      Atomic             Coordinates (Angstroms)
 Number     Number       Type             X           Y           Z
 ---------------------------------------------------------------------
      1          9           0       -1.976887    1.380676   -0.000073
      2         16           0       -1.444893   -0.119688    0.000004
      3          6           0        0.330051   -0.060554    0.000016
      4          7           0        0.858712    1.192543    0.000012
      5          6           0        2.206558    1.256333   -0.000000
      6          6           0        3.031248    0.139065   -0.000009
      7          6           0        2.446535   -1.126831   -0.000002
      8          6           0        1.060829   -1.239052    0.000009
      9          8           0       -1.870763   -0.684879    1.267123
     10          8           0       -1.870738   -0.684998   -1.267069
     11          1           0        2.626335    2.259136   -0.000003
     12          1           0        4.110663    0.252692   -0.000021
     13          1           0        3.069996   -2.017479   -0.000004
     14          1           0        0.572984   -2.207974    0.000012
 ---------------------------------------------------------------------
 Rotational constants (GHZ):           2.6600618           0.8383047           0.7323010
 Standard basis: 6-31G(d) (6D, 7F)
 There are   162 symmetry adapted cartesian basis functions of A   symmetry.
 There are   162 symmetry adapted basis functions of A   symmetry.
   162 basis functions,   320 primitive gaussians,   162 cartesian basis functions
    41 alpha electrons       41 beta electrons
       nuclear repulsion energy       638.4920728624 Hartrees.
 NAtoms=   14 NActive=   14 NUniq=   14 SFac= 1.00D+00 NAtFMM=   60 NAOKFM=F Big=F
 Integral buffers will be    131072 words long.
 Raffenetti 2 integral format.
 Two-electron integral symmetry is turned on.
 R6APFD:  NTU= -4 IXU= 1 FactS= 1.050
 Nuclear repulsion after empirical dispersion term =      638.4809366267 Hartrees.
 One-electron integrals computed using PRISM.
 NBasis=   162 RedAO= T EigKep=  8.61D-04  NBF=   162
 NBsUse=   162 1.00D-06 EigRej= -1.00D+00 NBFU=   162
 ExpMin= 1.17D-01 ExpMax= 2.19D+04 ExpMxC= 3.30D+03 IAcc=3 IRadAn=         5 AccDes= 0.00D+00
 Harris functional with IExCor= 3731 and IRadAn=       5 diagonalized for initial guess.
 HarFok:  IExCor= 3731 AccDes= 0.00D+00 IRadAn=         5 IDoV= 1 UseB2=F ITyADJ=14
 ICtDFT=  3500011 ScaDFX=  1.000000  1.000000  1.000000  1.000000
 FoFCou: FMM=F IPFlag=           0 FMFlag=      100000 FMFlg1=           0
         NFxFlg=           0 DoJE=T BraDBF=F KetDBF=T FulRan=T
         wScrn=  0.000000 ICntrl=       500 IOpCl=  0 I1Cent=   200000004 NGrid=           0
         NMat0=    1 NMatS0=      1 NMatT0=    0 NMatD0=    1 NMtDS0=    0 NMtDT0=    0
 Petite list used in FoFCou.
 Keep R1 ints in memory in canonical form, NReq=89332538.
 Requested convergence on RMS density matrix=1.00D-08 within  32 cycles.
 Requested convergence on MAX density matrix=1.00D-06.
 Requested convergence on             energy=1.00D-06.
 No special actions if energy rises.
 Integral accuracy reduced to 1.0D-05 until final iterations.
 Initial convergence to 1.0D-05 achieved.  Increase integral accuracy.
 SCF Done:  E(RAPFD) =  -895.601510153     A.U. after   15 cycles
            NFock= 15  Conv=0.73D-08     -V/T= 2.0063
 QCSCF skips out because SCF is already converged.
 DoSCS=F DFT=T ScalE2(SS,OS)=  1.000000  1.000000
 Range of M.O.s used for correlation:     1   162
 NBasis=   162 NAE=    41 NBE=    41 NFC=     0 NFV=     0
 NROrb=    162 NOA=    41 NOB=    41 NVA=   121 NVB=   121
 R6APFD:  NTU= -4 IXU= 1 FactS= 1.050
 Symmetrizing basis deriv contribution to polar:
 IMax=3 JMax=2 DiffMx= 0.00D+00
 G2DrvN: will do    15 centers at a time, making    1 passes.
 Calling FoFCou, ICntrl=  3107 FMM=F I1Cent=   0 AccDes= 0.00D+00.
 End of G2Drv F.D. properties file   721 does not exist.
 End of G2Drv F.D. properties file   722 does not exist.
 End of G2Drv F.D. properties file   788 does not exist.
          IDoAtm=11111111111111
          Differentiating once with respect to nuclear coordinates.
 Keep R1 ints in memory in canonical form, NReq=89338437.
          There are    45 degrees of freedom in the 1st order CPHF.  IDoFFX=6 NUNeed=     0.
     39 vectors produced by pass  0 Test12= 1.10D-14 2.22D-09 XBig12= 3.02D-01 1.64D-01.
 AX will form    39 AO Fock derivatives at one time.
     39 vectors produced by pass  1 Test12= 1.10D-14 2.22D-09 XBig12= 3.66D-02 5.37D-02.
     39 vectors produced by pass  2 Test12= 1.10D-14 2.22D-09 XBig12= 6.45D-04 7.98D-03.
     39 vectors produced by pass  3 Test12= 1.10D-14 2.22D-09 XBig12= 4.65D-06 5.23D-04.
     39 vectors produced by pass  4 Test12= 1.10D-14 2.22D-09 XBig12= 2.44D-08 2.63D-05.
     39 vectors produced by pass  5 Test12= 1.10D-14 2.22D-09 XBig12= 4.40D-11 9.91D-07.
     13 vectors produced by pass  6 Test12= 1.10D-14 2.22D-09 XBig12= 5.72D-14 3.59D-08.
 InvSVY:  IOpt=1 It=  1 EMax= 2.00D-15
 Solved reduced A of dimension   247 with    39 vectors.
 End of Minotr F.D. properties file   721 does not exist.
 End of Minotr F.D. properties file   722 does not exist.
 End of Minotr F.D. properties file   788 does not exist.

 **********************************************************************

            Population analysis using the SCF density.

 **********************************************************************

 Orbital symmetries:
       Occupied  (A) (A) (A) (A) (A) (A) (A) (A) (A) (A) (A) (A)
                 (A) (A) (A) (A) (A) (A) (A) (A) (A) (A) (A) (A)
                 (A) (A) (A) (A) (A) (A) (A) (A) (A) (A) (A) (A)
                 (A) (A) (A) (A) (A)
       Virtual   (A) (A) (A) (A) (A) (A) (A) (A) (A) (A) (A) (A)
                 (A) (A) (A) (A) (A) (A) (A) (A) (A) (A) (A) (A)
                 (A) (A) (A) (A) (A) (A) (A) (A) (A) (A) (A) (A)
                 (A) (A) (A) (A) (A) (A) (A) (A) (A) (A) (A) (A)
                 (A) (A) (A) (A) (A) (A) (A) (A) (A) (A) (A) (A)
                 (A) (A) (A) (A) (A) (A) (A) (A) (A) (A) (A) (A)
                 (A) (A) (A) (A) (A) (A) (A) (A) (A) (A) (A) (A)
                 (A) (A) (A) (A) (A) (A) (A) (A) (A) (A) (A) (A)
                 (A) (A) (A) (A) (A) (A) (A) (A) (A) (A) (A) (A)
                 (A) (A) (A) (A) (A) (A) (A) (A) (A) (A) (A) (A)
                 (A)
 The electronic state is 1-A.
 Alpha  occ. eigenvalues --  -89.23738 -24.79569 -19.21242 -19.21241 -14.41599
 Alpha  occ. eigenvalues --  -10.31752 -10.28594 -10.27362 -10.27217 -10.26253
 Alpha  occ. eigenvalues --   -8.21596  -6.16557  -6.16159  -6.16097  -1.28625
 Alpha  occ. eigenvalues --   -1.13292  -1.04927  -1.00113  -0.86194  -0.83465
 Alpha  occ. eigenvalues --   -0.73347  -0.68697  -0.65737  -0.60178  -0.55319
 Alpha  occ. eigenvalues --   -0.53603  -0.52295  -0.51633  -0.49854  -0.46474
 Alpha  occ. eigenvalues --   -0.45831  -0.44450  -0.44308  -0.42523  -0.38859
 Alpha  occ. eigenvalues --   -0.35884  -0.35196  -0.33530  -0.32877  -0.30780
 Alpha  occ. eigenvalues --   -0.30416
 Alpha virt. eigenvalues --   -0.06878  -0.05326   0.00077   0.06289   0.08612
 Alpha virt. eigenvalues --    0.09568   0.11290   0.12866   0.15851   0.16322
 Alpha virt. eigenvalues --    0.17329   0.22267   0.24870   0.27895   0.29382
 Alpha virt. eigenvalues --    0.31824   0.34970   0.37379   0.39986   0.43768
 Alpha virt. eigenvalues --    0.47173   0.50267   0.52553   0.55544   0.56696
 Alpha virt. eigenvalues --    0.57216   0.57627   0.58648   0.59273   0.62688
 Alpha virt. eigenvalues --    0.62903   0.66722   0.70912   0.77018   0.79063
 Alpha virt. eigenvalues --    0.80664   0.81413   0.82098   0.82864   0.83761
 Alpha virt. eigenvalues --    0.85155   0.86814   0.87791   0.89496   0.90830
 Alpha virt. eigenvalues --    0.95922   0.98320   0.99148   1.02652   1.03911
 Alpha virt. eigenvalues --    1.05785   1.06683   1.09460   1.12788   1.16486
 Alpha virt. eigenvalues --    1.19892   1.20626   1.24942   1.28007   1.31400
 Alpha virt. eigenvalues --    1.32964   1.37649   1.40748   1.42396   1.43999
 Alpha virt. eigenvalues --    1.45072   1.46056   1.49242   1.57027   1.58145
 Alpha virt. eigenvalues --    1.68573   1.72232   1.76541   1.76642   1.78026
 Alpha virt. eigenvalues --    1.78398   1.78934   1.81854   1.83136   1.85322
 Alpha virt. eigenvalues --    1.85857   1.88701   1.88917   1.90952   1.96063
 Alpha virt. eigenvalues --    1.99957   2.06121   2.10915   2.11282   2.13347
 Alpha virt. eigenvalues --    2.13528   2.15045   2.16602   2.20027   2.26859
 Alpha virt. eigenvalues --    2.27278   2.29419   2.35026   2.48536   2.55024
 Alpha virt. eigenvalues --    2.59587   2.63931   2.64148   2.65269   2.67065
 Alpha virt. eigenvalues --    2.74468   2.78710   2.81379   2.84937   3.03472
 Alpha virt. eigenvalues --    3.31675   3.77295   3.88199   3.95469   4.03894
 Alpha virt. eigenvalues --    4.09804   4.12852   4.23725   4.32080   4.55149
 Alpha virt. eigenvalues --    4.58576
          Condensed to atoms (all electrons):
               1          2          3          4          5          6
     1  F    9.146032   0.219182  -0.030298   0.003987   0.000194  -0.000002
     2  S    0.219182  13.466779   0.193513  -0.022452   0.000216   0.000197
     3  C   -0.030298   0.193513   5.298471   0.353207  -0.060735  -0.043230
     4  N    0.003987  -0.022452   0.353207   6.780540   0.447960  -0.028025
     5  C    0.000194   0.000216  -0.060735   0.447960   4.810305   0.485382
     6  C   -0.000002   0.000197  -0.043230  -0.028025   0.485382   4.985558
     7  C   -0.000013   0.001374  -0.034876  -0.038442  -0.033601   0.537551
     8  C    0.000777  -0.022679   0.456966  -0.025044  -0.038498  -0.030799
     9  O   -0.035580   0.454330  -0.055645   0.000012  -0.000130   0.000005
    10  O   -0.035580   0.454327  -0.055646   0.000013  -0.000130   0.000005
    11  H    0.000004  -0.000175   0.006600  -0.051127   0.386504  -0.061087
    12  H   -0.000000  -0.000003   0.000246   0.003845  -0.030804   0.361624
    13  H    0.000000  -0.000031   0.005387   0.000060   0.004043  -0.038615
    14  H    0.000009   0.001992  -0.035222   0.003447   0.000127   0.004162
               7          8          9         10         11         12
     1  F   -0.000013   0.000777  -0.035580  -0.035580   0.000004  -0.000000
     2  S    0.001374  -0.022679   0.454330   0.454327  -0.000175  -0.000003
     3  C   -0.034876   0.456966  -0.055645  -0.055646   0.006600   0.000246
     4  N   -0.038442  -0.025044   0.000012   0.000013  -0.051127   0.003845
     5  C   -0.033601  -0.038498  -0.000130  -0.000130   0.386504  -0.030804
     6  C    0.537551  -0.030799   0.000005   0.000005  -0.061087   0.361624
     7  C    4.865863   0.529311   0.000061   0.000061   0.003360  -0.037532
     8  C    0.529311   4.952548   0.000114   0.000115   0.000321   0.004798
     9  O    0.000061   0.000114   8.161574  -0.041682   0.000000  -0.000000
    10  O    0.000061   0.000115  -0.041682   8.161577   0.000000  -0.000000
    11  H    0.003360   0.000321   0.000000   0.000000   0.514680  -0.001419
    12  H   -0.037532   0.004798  -0.000000  -0.000000  -0.001419   0.504133
    13  H    0.372467  -0.039773   0.000001   0.000001  -0.000134  -0.004356
    14  H   -0.032888   0.362166   0.000382   0.000383   0.000020  -0.000080
              13         14
     1  F    0.000000   0.000009
     2  S   -0.000031   0.001992
     3  C    0.005387  -0.035222
     4  N    0.000060   0.003447
     5  C    0.004043   0.000127
     6  C   -0.038615   0.004162
     7  C    0.372467  -0.032888
     8  C   -0.039773   0.362166
     9  O    0.000001   0.000382
    10  O    0.000001   0.000383
    11  H   -0.000134   0.000020
    12  H   -0.004356  -0.000080
    13  H    0.499165  -0.004490
    14  H   -0.004490   0.472812
 Mulliken charges:
               1
     1  F   -0.268710
     2  S    1.253431
     3  C    0.001262
     4  N   -0.427981
     5  C    0.029168
     6  C   -0.172726
     7  C   -0.132695
     8  C   -0.150323
     9  O   -0.483441
    10  O   -0.483443
    11  H    0.202453
    12  H    0.199549
    13  H    0.206276
    14  H    0.227181
 Sum of Mulliken charges =  -0.00000
 Mulliken charges with hydrogens summed into heavy atoms:
               1
     1  F   -0.268710
     2  S    1.253431
     3  C    0.001262
     4  N   -0.427981
     5  C    0.231621
     6  C    0.026822
     7  C    0.073581
     8  C    0.076858
     9  O   -0.483441
    10  O   -0.483443
 APT charges:
               1
     1  F   -0.032173
     2  S    0.223784
     3  C   -0.160649
     4  N   -0.580385
     5  C   -0.428678
     6  C   -0.472909
     7  C   -0.505284
     8  C   -0.583034
     9  O   -0.123858
    10  O   -0.123863
    11  H    0.684164
    12  H    0.851188
    13  H    0.752083
    14  H    0.499614
 Sum of APT charges =  -0.00000
 APT charges with hydrogens summed into heavy atoms:
               1
     1  F   -0.032173
     2  S    0.223784
     3  C   -0.160649
     4  N   -0.580385
     5  C    0.255485
     6  C    0.378279
     7  C    0.246799
     8  C   -0.083420
     9  O   -0.123858
    10  O   -0.123863
 Electronic spatial extent (au):  <R**2>=           1535.1901
 Charge=             -0.0000 electrons
 Dipole moment (field-independent basis, Debye):
    X=              6.1725    Y=             -0.6687    Z=             -0.0001  Tot=              6.2086
 Quadrupole moment (field-independent basis, Debye-Ang):
   XX=            -55.1213   YY=            -58.6013   ZZ=            -68.1534
   XY=             -2.9007   XZ=              0.0001   YZ=             -0.0002
 Traceless Quadrupole moment (field-independent basis, Debye-Ang):
   XX=              5.5040   YY=              2.0241   ZZ=             -7.5281
   XY=             -2.9007   XZ=              0.0001   YZ=             -0.0002
 Octapole moment (field-independent basis, Debye-Ang**2):
  XXX=             24.8840  YYY=             -2.3320  ZZZ=             -0.0009  XYY=              5.6458
  XXY=              9.3028  XXZ=             -0.0008  XZZ=             -5.4968  YZZ=              6.8091
  YYZ=              0.0002  XYZ=              0.0003
 Hexadecapole moment (field-independent basis, Debye-Ang**3):
 XXXX=          -1197.4419 YYYY=           -347.3310 ZZZZ=           -170.7195 XXXY=            -21.2608
 XXXZ=              0.0007 YYYX=            -12.5899 YYYZ=             -0.0009 ZZZX=              0.0016
 ZZZY=             -0.0005 XXYY=           -256.9663 XXZZ=           -282.0060 YYZZ=            -95.1905
 XXYZ=             -0.0006 YYXZ=             -0.0004 ZZXY=             -9.7566
 N-N= 6.384809366267D+02 E-N=-3.387021972745D+03  KE= 8.899768039266D+02
  Exact polarizability:   0.000   0.000   0.000   0.000   0.000   0.000
 Approx polarizability: 150.352   3.453 139.587  -0.001   0.001  74.878
 R6APFD:  NTU= -4 IXU= 1 FactS= 1.050
 Calling FoFJK, ICntrl=    100147 FMM=F ISym2X=0 I1Cent= 0 IOpClX= 0 NMat=1 NMatS=1 NMatT=0.
 ***** Axes restored to original set *****
 -------------------------------------------------------------------
 Center     Atomic                   Forces (Hartrees/Bohr)
 Number     Number              X              Y              Z
 -------------------------------------------------------------------
      1        9          -0.013587930   -0.001802275   -0.000581656
      2       16           0.023873975    0.023819453    0.006891552
      3        6          -0.022793705   -0.044860399   -0.012861299
      4        7          -0.003855557    0.026181774    0.007416724
      5        6           0.016375305   -0.004373124   -0.001157524
      6        6           0.001135737    0.005611808    0.001599738
      7        6          -0.003733071   -0.002673697   -0.000778000
      8        6           0.005341988    0.004003092    0.001164589
      9        8          -0.002586500   -0.001080252   -0.006127073
     10        8          -0.002641353   -0.004131784    0.004617973
     11        1           0.000540970   -0.000579103   -0.000161733
     12        1          -0.000413915   -0.000396387   -0.000114678
     13        1           0.001212010    0.000152196    0.000049214
     14        1           0.001132047    0.000128699    0.000042174
 -------------------------------------------------------------------
 Cartesian Forces:  Max     0.044860399 RMS     0.011246111
 FormGI is forming the generalized inverse of G from B-inverse, IUseBI=4.

 GradGradGradGradGradGradGradGradGradGradGradGradGradGradGradGradGradGrad
 Berny optimization.
 Internal  Forces:  Max     0.033194301 RMS     0.006650532
 Search for a local minimum.
 Step number   1 out of a maximum of   72
 All quantities printed in internal units (Hartrees-Bohrs-Radians)
 Mixed Optimization -- RFO/linear search
 Second derivative matrix not updated -- analytic derivatives used.
 ITU=  0
     Eigenvalues ---   -0.00353   0.01484   0.01690   0.01904   0.02296
     Eigenvalues ---    0.02560   0.02826   0.02920   0.03691   0.11045
     Eigenvalues ---    0.11858   0.12367   0.13289   0.13783   0.15797
     Eigenvalues ---    0.15885   0.17918   0.18301   0.19053   0.19933
     Eigenvalues ---    0.20974   0.23657   0.28444   0.30986   0.36420
     Eigenvalues ---    0.36678   0.37052   0.37224   0.39341   0.43250
     Eigenvalues ---    0.43865   0.48744   0.49764   0.53081   0.66680
     Eigenvalues ---    0.66826
 RFO step:  Lambda=-1.07716675D-02 EMin=-3.52935749D-03
 Linear search not attempted -- first point.
 Iteration  1 RMS(Cart)=  0.11387976 RMS(Int)=  0.03423389
 Iteration  2 RMS(Cart)=  0.05603078 RMS(Int)=  0.00205353
 Iteration  3 RMS(Cart)=  0.00213923 RMS(Int)=  0.00038521
 Iteration  4 RMS(Cart)=  0.00000242 RMS(Int)=  0.00038521
 Iteration  5 RMS(Cart)=  0.00000000 RMS(Int)=  0.00038521
 Variable       Old X    -DE/DX   Delta X   Delta X   Delta X     New X
                                 (Linear)    (Quad)   (Total)
    R1        3.00823  -0.00165   0.00000  -0.00475  -0.00475   3.00348
    R2        3.35602   0.00421   0.00000   0.03443   0.03443   3.39045
    R3        2.74264  -0.00671   0.00000  -0.01434  -0.01434   2.72830
    R4        2.74264  -0.00671   0.00000  -0.01205  -0.01205   2.73059
    R5        2.57012  -0.02741   0.00000  -0.08342  -0.08337   2.48675
    R6        2.62045   0.00034   0.00000   0.01073   0.01079   2.63124
    R7        2.54991  -0.01473   0.00000  -0.02688  -0.02688   2.52303
    R8        2.62420   0.00388   0.00000   0.00779   0.00774   2.63194
    R9        2.05436   0.00028   0.00000   0.00084   0.00084   2.05520
   R10        2.63506  -0.00341   0.00000  -0.00190  -0.00195   2.63311
   R11        2.05107   0.00042   0.00000   0.00130   0.00130   2.05237
   R12        2.62718  -0.00044   0.00000  -0.00006  -0.00006   2.62712
   R13        2.05447  -0.00047   0.00000  -0.00109  -0.00109   2.05337
   R14        2.04998   0.00071   0.00000   0.00162   0.00162   2.05160
    A1        1.87824  -0.03319   0.00000  -0.15300  -0.15295   1.72529
    A2        1.84317   0.00921   0.00000   0.02878   0.02942   1.87258
    A3        1.84317   0.00921   0.00000   0.03507   0.03453   1.87770
    A4        1.88203   0.00364   0.00000   0.04058   0.03996   1.92198
    A5        1.88202   0.00364   0.00000   0.02151   0.02055   1.90257
    A6        2.12285   0.00172   0.00000  -0.00036  -0.00163   2.12122
    A7        2.00333   0.00681   0.00000   0.05393   0.05362   2.05695
    A8        2.09255  -0.01200   0.00000  -0.06938  -0.06963   2.02293
    A9        2.18730   0.00519   0.00000   0.01545   0.01535   2.20265
   A10        2.01732   0.00374   0.00000   0.01562   0.01571   2.03303
   A11        2.15937  -0.00047   0.00000  -0.00974  -0.00979   2.14958
   A12        2.01453  -0.00054   0.00000   0.00613   0.00615   2.02067
   A13        2.10929   0.00101   0.00000   0.00362   0.00364   2.11293
   A14        2.07303  -0.00167   0.00000   0.00054   0.00046   2.07349
   A15        2.10178   0.00042   0.00000  -0.00452  -0.00448   2.09729
   A16        2.10838   0.00124   0.00000   0.00398   0.00402   2.11240
   A17        2.08431  -0.00376   0.00000  -0.01038  -0.01041   2.07390
   A18        2.09816   0.00304   0.00000   0.01018   0.01018   2.10834
   A19        2.10072   0.00072   0.00000   0.00020   0.00020   2.10092
   A20        2.04505  -0.00303   0.00000  -0.01149  -0.01142   2.03363
   A21        2.12009   0.00060   0.00000  -0.00013  -0.00019   2.11990
   A22        2.11804   0.00244   0.00000   0.01163   0.01156   2.12960
    D1        0.00004   0.00000   0.00000   0.32145   0.32086   0.32090
    D2       -3.14153  -0.00000   0.00000   0.28493   0.28447  -2.85706
    D3       -1.98078   0.00380   0.00000   0.34320   0.34388  -1.63690
    D4        1.16083   0.00380   0.00000   0.30668   0.30749   1.46832
    D5        1.98086  -0.00380   0.00000   0.29771   0.29743   2.27829
    D6       -1.16071  -0.00380   0.00000   0.26119   0.26104  -0.89967
    D7       -3.14157  -0.00000   0.00000  -0.04367  -0.04515   3.09646
    D8        0.00000  -0.00000   0.00000  -0.00486  -0.00459  -0.00459
    D9        3.14158   0.00000   0.00000   0.05438   0.05364  -3.08797
   D10       -0.00002   0.00000   0.00000   0.06544   0.06484   0.06482
   D11        0.00000   0.00000   0.00000   0.01374   0.01378   0.01378
   D12       -3.14159   0.00000   0.00000   0.02480   0.02497  -3.11662
   D13       -0.00000   0.00000   0.00000  -0.00686  -0.00725  -0.00725
   D14        3.14159   0.00000   0.00000  -0.00655  -0.00673   3.13487
   D15       -0.00000  -0.00000   0.00000   0.00892   0.00905   0.00905
   D16        3.14159  -0.00000   0.00000   0.00461   0.00478  -3.13682
   D17        3.14159   0.00000   0.00000   0.00861   0.00851  -3.13309
   D18       -0.00000   0.00000   0.00000   0.00429   0.00423   0.00423
   D19        0.00000  -0.00000   0.00000   0.00064   0.00080   0.00080
   D20       -3.14159  -0.00000   0.00000  -0.00758  -0.00761   3.13399
   D21       -3.14159  -0.00000   0.00000   0.00497   0.00511  -3.13648
   D22        0.00001  -0.00000   0.00000  -0.00325  -0.00329  -0.00329
   D23       -0.00000  -0.00000   0.00000  -0.01098  -0.01104  -0.01104
   D24        3.14159   0.00000   0.00000  -0.02203  -0.02230   3.11929
   D25        3.14159   0.00000   0.00000  -0.00275  -0.00267   3.13892
   D26       -0.00001   0.00000   0.00000  -0.01379  -0.01393  -0.01394
         Item               Value     Threshold  Converged?
 Maximum Force            0.033194     0.000450     NO 
 RMS     Force            0.006651     0.000300     NO 
 Maximum Displacement     0.564697     0.001800     NO 
 RMS     Displacement     0.164021     0.001200     NO 
 Predicted change in Energy=-6.635681D-03
 GradGradGradGradGradGradGradGradGradGradGradGradGradGradGradGradGradGrad

                          Input orientation:                          
 ---------------------------------------------------------------------
 Center     Atomic      Atomic             Coordinates (Angstroms)
 Number     Number       Type             X           Y           Z
 ---------------------------------------------------------------------
      1          9           0        2.639477   -1.533702   -0.737805
      2         16           0        2.381606   -0.158806    0.016695
      3          6           0        0.588570   -0.142450   -0.044368
      4          7           0       -0.028972   -1.280123   -0.281046
      5          6           0       -1.363626   -1.247126   -0.267671
      6          6           0       -2.094563   -0.089549   -0.011674
      7          6           0       -1.407640    1.097804    0.232947
      8          6           0       -0.017651    1.084603    0.211757
      9          8           0        2.830680   -0.325895    1.378619
     10          8           0        2.890802    0.901738   -0.822290
     11          1           0       -1.862127   -2.192075   -0.471056
     12          1           0       -3.180221   -0.119135   -0.008517
     13          1           0       -1.945392    2.021351    0.429366
     14          1           0        0.569058    1.983364    0.375044
 ---------------------------------------------------------------------
                    Distance matrix (angstroms):
                    1          2          3          4          5
     1  F    0.000000
     2  S    1.589373   0.000000
     3  C    2.573452   1.794150   0.000000
     4  N    2.719109   2.675236   1.315931   0.000000
     5  C    4.040790   3.910507   2.254161   1.335128   0.000000
     6  C    5.002398   4.476795   2.683854   2.399311   1.392763
     7  C    4.924057   3.998026   2.366429   2.796328   2.398178
     8  C    3.849353   2.709345   1.392395   2.415556   2.734677
     9  O    2.444301   1.443753   2.661879   3.441315   4.599037
    10  O    2.449831   1.444967   2.644950   3.684907   4.798476
    11  H    4.557307   4.730894   3.223189   2.056263   1.087565
    12  H    6.033386   5.562026   3.769034   3.369352   2.153960
    13  H    5.917915   4.862746   3.365624   3.882922   3.392235
    14  H    4.230227   2.828893   2.166881   3.382076   3.818955
                    6          7          8          9         10
     6  C    0.000000
     7  C    1.393382   0.000000
     8  C    2.396272   1.390213   0.000000
     9  O    5.123163   4.615500   3.385862   0.000000
    10  O    5.147195   4.430414   3.092214   2.520852   0.000000
    11  H    2.164642   3.394921   3.821642   5.378324   5.682022
    12  H    1.086065   2.163629   3.391070   6.172344   6.209809
    13  H    2.161636   1.086599   2.154307   5.405693   5.119467
    14  H    3.397264   2.170655   1.085662   3.384490   2.827369
                   11         12         13         14
    11  H    0.000000
    12  H    2.499679   0.000000
    13  H    4.309369   2.509627   0.000000
    14  H    4.905185   4.315636   2.515324   0.000000
 Stoichiometry    C5H4FNO2S
 Framework group  C1[X(C5H4FNO2S)]
 Deg. of freedom    36
 Full point group                 C1      NOp   1
 Largest Abelian subgroup         C1      NOp   1
 Largest concise Abelian subgroup C1      NOp   1
                         Standard orientation:                         
 ---------------------------------------------------------------------
 Center     Atomic      Atomic             Coordinates (Angstroms)
 Number     Number       Type             X           Y           Z
 ---------------------------------------------------------------------
      1          9           0       -1.802813    1.366518   -0.416599
      2         16           0       -1.459872   -0.116615    0.040366
      3          6           0        0.330556   -0.015865   -0.016091
      4          7           0        0.879517    1.180085   -0.011750
      5          6           0        2.213918    1.222661   -0.000478
      6          6           0        3.012458    0.081660    0.015012
      7          6           0        2.397163   -1.168491    0.007983
      8          6           0        1.008596   -1.232017   -0.015209
      9          8           0       -1.906504   -0.259021    1.405892
     10          8           0       -1.914048   -1.010121   -1.000451
     11          1           0        2.655424    2.216573   -0.003582
     12          1           0        4.094594    0.173005    0.028213
     13          1           0        2.988862   -2.079846    0.012516
     14          1           0        0.476038   -2.177699   -0.042189
 ---------------------------------------------------------------------
 Rotational constants (GHZ):           2.6534387           0.8551337           0.7437579
 Standard basis: 6-31G(d) (6D, 7F)
 There are   162 symmetry adapted cartesian basis functions of A   symmetry.
 There are   162 symmetry adapted basis functions of A   symmetry.
   162 basis functions,   320 primitive gaussians,   162 cartesian basis functions
    41 alpha electrons       41 beta electrons
       nuclear repulsion energy       641.7043324034 Hartrees.
 NAtoms=   14 NActive=   14 NUniq=   14 SFac= 1.00D+00 NAtFMM=   60 NAOKFM=F Big=F
 Integral buffers will be    131072 words long.
 Raffenetti 2 integral format.
 Two-electron integral symmetry is turned on.
 R6APFD:  NTU= -4 IXU= 1 FactS= 1.050
 Nuclear repulsion after empirical dispersion term =      641.6929095595 Hartrees.
 One-electron integrals computed using PRISM.
 NBasis=   162 RedAO= T EigKep=  8.42D-04  NBF=   162
 NBsUse=   162 1.00D-06 EigRej= -1.00D+00 NBFU=   162
 Initial guess from the checkpoint file:  "FCFXLXGZHDHJLB-UHFFFAOYSA-N_conf_0_0.chk"
 B after Tr=     0.000000   -0.000000    0.000000
         Rot=    0.997085    0.075483    0.001024    0.011048 Ang=   8.75 deg.
 ExpMin= 1.17D-01 ExpMax= 2.19D+04 ExpMxC= 3.30D+03 IAcc=2 IRadAn=         4 AccDes= 0.00D+00
 Harris functional with IExCor= 3731 and IRadAn=       4 diagonalized for initial guess.
 HarFok:  IExCor= 3731 AccDes= 0.00D+00 IRadAn=         4 IDoV= 1 UseB2=F ITyADJ=14
 ICtDFT=  3500011 ScaDFX=  1.000000  1.000000  1.000000  1.000000
 FoFCou: FMM=F IPFlag=           0 FMFlag=      100000 FMFlg1=           0
         NFxFlg=           0 DoJE=T BraDBF=F KetDBF=T FulRan=T
         wScrn=  0.000000 ICntrl=       500 IOpCl=  0 I1Cent=   200000004 NGrid=           0
         NMat0=    1 NMatS0=      1 NMatT0=    0 NMatD0=    1 NMtDS0=    0 NMtDT0=    0
 Petite list used in FoFCou.
 Keep R1 ints in memory in canonical form, NReq=89332538.
 Requested convergence on RMS density matrix=1.00D-08 within  32 cycles.
 Requested convergence on MAX density matrix=1.00D-06.
 Requested convergence on             energy=1.00D-06.
 No special actions if energy rises.
 Integral accuracy reduced to 1.0D-05 until final iterations.
 Initial convergence to 1.0D-05 achieved.  Increase integral accuracy.
 SCF Done:  E(RAPFD) =  -895.607483629     A.U. after   14 cycles
            NFock= 14  Conv=0.96D-08     -V/T= 2.0061
 QCSCF skips out because SCF is already converged.
 R6APFD:  NTU= -4 IXU= 1 FactS= 1.050
 Calling FoFJK, ICntrl=      2127 FMM=F ISym2X=0 I1Cent= 0 IOpClX= 0 NMat=1 NMatS=1 NMatT=0.
 ***** Axes restored to original set *****
 -------------------------------------------------------------------
 Center     Atomic                   Forces (Hartrees/Bohr)
 Number     Number              X              Y              Z
 -------------------------------------------------------------------
      1        9           0.002286855   -0.001835288   -0.001694543
      2       16          -0.001579359    0.001800671    0.001232591
      3        6           0.000984890    0.005137905    0.000434288
      4        7          -0.002329836   -0.003777080    0.000891449
      5        6           0.000130481   -0.000729575   -0.000353100
      6        6          -0.000184421    0.000569599    0.000080799
      7        6          -0.000529132   -0.000138519   -0.000363859
      8        6          -0.000394886    0.000600565   -0.000387406
      9        8           0.000978147   -0.001405930    0.000481872
     10        8           0.000506969    0.000156227   -0.000324863
     11        1          -0.000068703   -0.000012468   -0.000019183
     12        1          -0.000015693   -0.000095129    0.000053522
     13        1          -0.000009428    0.000023539    0.000034965
     14        1           0.000224114   -0.000294517   -0.000066532
 -------------------------------------------------------------------
 Cartesian Forces:  Max     0.005137905 RMS     0.001314949

 GradGradGradGradGradGradGradGradGradGradGradGradGradGradGradGradGradGrad
 Berny optimization.
 Using GEDIIS/GDIIS optimizer.
 FormGI is forming the generalized inverse of G from B-inverse, IUseBI=4.
 Internal  Forces:  Max     0.004307438 RMS     0.001025408
 Search for a local minimum.
 Step number   2 out of a maximum of   72
 All quantities printed in internal units (Hartrees-Bohrs-Radians)
 Mixed Optimization -- RFO/linear search
 Update second derivatives using D2CorX and points    1    2
 DE= -5.97D-03 DEPred=-6.64D-03 R= 9.00D-01
 TightC=F SS=  1.41D+00  RLast= 7.81D-01 DXNew= 5.0454D-01 2.3435D+00
 Trust test= 9.00D-01 RLast= 7.81D-01 DXMaxT set to 5.05D-01
 ITU=  1  0
 Use linear search instead of GDIIS.
     Eigenvalues ---   -0.00410   0.01484   0.01690   0.01902   0.02296
     Eigenvalues ---    0.02559   0.02825   0.02920   0.03691   0.11047
     Eigenvalues ---    0.11847   0.12370   0.13289   0.13720   0.15702
     Eigenvalues ---    0.15793   0.18082   0.18159   0.19050   0.20558
     Eigenvalues ---    0.21196   0.23616   0.28402   0.31364   0.36414
     Eigenvalues ---    0.36677   0.37051   0.37223   0.39229   0.43777
     Eigenvalues ---    0.43966   0.49008   0.49735   0.53414   0.66673
     Eigenvalues ---    0.66894
 RFO step:  Lambda=-4.99185060D-03 EMin=-4.09597491D-03
 Quartic linear search produced a step of  0.03259.
 Iteration  1 RMS(Cart)=  0.10676780 RMS(Int)=  0.06789305
 Iteration  2 RMS(Cart)=  0.10426914 RMS(Int)=  0.00875088
 Iteration  3 RMS(Cart)=  0.01137213 RMS(Int)=  0.00013050
 Iteration  4 RMS(Cart)=  0.00009888 RMS(Int)=  0.00010905
 Iteration  5 RMS(Cart)=  0.00000001 RMS(Int)=  0.00010905
 Variable       Old X    -DE/DX   Delta X   Delta X   Delta X     New X
                                 (Linear)    (Quad)   (Total)
    R1        3.00348   0.00276  -0.00015   0.00667   0.00651   3.00999
    R2        3.39045   0.00219   0.00112  -0.00088   0.00025   3.39070
    R3        2.72830   0.00092  -0.00047   0.00133   0.00086   2.72916
    R4        2.73059   0.00048  -0.00039   0.00413   0.00373   2.73433
    R5        2.48675   0.00431  -0.00272   0.02001   0.01733   2.50408
    R6        2.63124   0.00025   0.00035  -0.00237  -0.00196   2.62929
    R7        2.52303  -0.00003  -0.00088   0.00339   0.00250   2.52553
    R8        2.63194   0.00059   0.00025   0.00012   0.00032   2.63226
    R9        2.05520   0.00005   0.00003  -0.00003  -0.00001   2.05519
   R10        2.63311   0.00023  -0.00006  -0.00053  -0.00064   2.63247
   R11        2.05237   0.00002   0.00004  -0.00017  -0.00013   2.05224
   R12        2.62712   0.00069  -0.00000   0.00143   0.00144   2.62856
   R13        2.05337   0.00003  -0.00004   0.00023   0.00019   2.05357
   R14        2.05160  -0.00013   0.00005  -0.00045  -0.00040   2.05121
    A1        1.72529   0.00393  -0.00499   0.03263   0.02761   1.75289
    A2        1.87258  -0.00197   0.00096  -0.01301  -0.01224   1.86034
    A3        1.87770  -0.00199   0.00113  -0.00646  -0.00522   1.87248
    A4        1.92198   0.00115   0.00130   0.01077   0.01200   1.93398
    A5        1.90257   0.00012   0.00067  -0.01971  -0.01902   1.88355
    A6        2.12122  -0.00046  -0.00005   0.00219   0.00211   2.12333
    A7        2.05695  -0.00022   0.00175  -0.01153  -0.01021   2.04674
    A8        2.02293   0.00106  -0.00227   0.01355   0.01082   2.03375
    A9        2.20265  -0.00084   0.00050  -0.00367  -0.00340   2.19925
   A10        2.03303   0.00008   0.00051  -0.00262  -0.00199   2.03104
   A11        2.14958  -0.00014  -0.00032   0.00150   0.00116   2.15075
   A12        2.02067   0.00013   0.00020  -0.00049  -0.00028   2.02039
   A13        2.11293   0.00002   0.00012  -0.00101  -0.00088   2.11205
   A14        2.07349   0.00040   0.00001   0.00039   0.00035   2.07383
   A15        2.09729  -0.00028  -0.00015  -0.00005  -0.00017   2.09712
   A16        2.11240  -0.00012   0.00013  -0.00036  -0.00020   2.11219
   A17        2.07390   0.00045  -0.00034   0.00233   0.00199   2.07588
   A18        2.10834  -0.00022   0.00033  -0.00158  -0.00127   2.10707
   A19        2.10092  -0.00023   0.00001  -0.00082  -0.00083   2.10009
   A20        2.03363   0.00006  -0.00037   0.00187   0.00157   2.03520
   A21        2.11990  -0.00039  -0.00001  -0.00168  -0.00178   2.11811
   A22        2.12960   0.00033   0.00038  -0.00036  -0.00008   2.12952
    D1        0.32090   0.00100   0.01046   0.42814   0.43873   0.75963
    D2       -2.85706   0.00095   0.00927   0.38194   0.39134  -2.46572
    D3       -1.63690   0.00101   0.01121   0.42420   0.43534  -1.20157
    D4        1.46832   0.00097   0.01002   0.37800   0.38795   1.85627
    D5        2.27829   0.00055   0.00969   0.42914   0.43877   2.71706
    D6       -0.89967   0.00050   0.00851   0.38294   0.39138  -0.50829
    D7        3.09646   0.00017  -0.00147  -0.05299  -0.05419   3.04227
    D8       -0.00459   0.00018  -0.00015  -0.00186  -0.00207  -0.00666
    D9       -3.08797  -0.00018   0.00175   0.06354   0.06543  -3.02254
   D10        0.06482  -0.00004   0.00211   0.07991   0.08212   0.14694
   D11        0.01378  -0.00021   0.00045   0.01278   0.01322   0.02700
   D12       -3.11662  -0.00007   0.00081   0.02915   0.02992  -3.08670
   D13       -0.00725  -0.00006  -0.00024  -0.01005  -0.01021  -0.01746
   D14        3.13487  -0.00004  -0.00022  -0.00910  -0.00928   3.12559
   D15        0.00905  -0.00001   0.00030   0.01031   0.01059   0.01964
   D16       -3.13682   0.00004   0.00016   0.00584   0.00596  -3.13085
   D17       -3.13309  -0.00003   0.00028   0.00931   0.00961  -3.12348
   D18        0.00423   0.00002   0.00014   0.00483   0.00498   0.00921
   D19        0.00080  -0.00002   0.00003   0.00139   0.00139   0.00219
   D20        3.13399   0.00003  -0.00025  -0.00823  -0.00848   3.12551
   D21       -3.13648  -0.00007   0.00017   0.00591   0.00606  -3.13042
   D22       -0.00329  -0.00001  -0.00011  -0.00371  -0.00382  -0.00710
   D23       -0.01104   0.00011  -0.00036  -0.01181  -0.01216  -0.02320
   D24        3.11929  -0.00003  -0.00073  -0.02829  -0.02898   3.09030
   D25        3.13892   0.00006  -0.00009  -0.00223  -0.00232   3.13659
   D26       -0.01394  -0.00009  -0.00045  -0.01871  -0.01915  -0.03309
         Item               Value     Threshold  Converged?
 Maximum Force            0.004307     0.000450     NO 
 RMS     Force            0.001025     0.000300     NO 
 Maximum Displacement     0.830889     0.001800     NO 
 RMS     Displacement     0.216251     0.001200     NO 
 Predicted change in Energy=-4.351844D-03
 GradGradGradGradGradGradGradGradGradGradGradGradGradGradGradGradGradGrad

                          Input orientation:                          
 ---------------------------------------------------------------------
 Center     Atomic      Atomic             Coordinates (Angstroms)
 Number     Number       Type             X           Y           Z
 ---------------------------------------------------------------------
      1          9           0        2.720201   -1.259004   -1.059539
      2         16           0        2.378033   -0.187802    0.068520
      3          6           0        0.588414   -0.147120   -0.054143
      4          7           0       -0.038606   -1.308501   -0.172203
      5          6           0       -1.374131   -1.267633   -0.143810
      6          6           0       -2.098403   -0.089241    0.020743
      7          6           0       -1.405900    1.113609    0.139749
      8          6           0       -0.015986    1.098056    0.087687
      9          8           0        2.793154   -0.765582    1.325333
     10          8           0        2.884454    1.089836   -0.384053
     11          1           0       -1.878799   -2.224335   -0.257048
     12          1           0       -3.183792   -0.115041    0.046377
     13          1           0       -1.940215    2.052919    0.254307
     14          1           0        0.571575    2.009837    0.128081
 ---------------------------------------------------------------------
                    Distance matrix (angstroms):
                    1          2          3          4          5
     1  F    0.000000
     2  S    1.592819   0.000000
     3  C    2.606075   1.794279   0.000000
     4  N    2.898419   2.674708   1.325104   0.000000
     5  C    4.195497   3.910225   2.261675   1.336452   0.000000
     6  C    5.074869   4.477776   2.688483   2.401372   1.392931
     7  C    4.908391   4.002111   2.367345   2.798826   2.398277
     8  C    3.789272   2.717559   1.391358   2.420656   2.737633
     9  O    2.436473   1.444207   2.673262   3.249037   4.447100
    10  O    2.449553   1.446943   2.628821   3.786976   4.873492
    11  H    4.767248   4.730125   3.231584   2.057245   1.087562
    12  H    6.114641   5.562345   3.773682   3.371101   2.153953
    13  H    5.866388   4.868533   3.365899   3.885508   3.391904
    14  H    4.088075   2.845427   2.164706   3.387309   3.821192
                    6          7          8          9         10
     6  C    0.000000
     7  C    1.393044   0.000000
     8  C    2.398043   1.390975   0.000000
     9  O    5.107516   4.750687   3.591126   0.000000
    10  O    5.136433   4.322276   2.938564   2.524463   0.000000
    11  H    2.164260   3.394547   3.824551   5.143835   5.804174
    12  H    1.085999   2.163146   3.392389   6.146773   6.201662
    13  H    2.160653   1.086701   2.154572   5.612115   4.961095
    14  H    3.398004   2.171122   1.085452   3.751237   2.541277
                   11         12         13         14
    11  H    0.000000
    12  H    2.498839   0.000000
    13  H    4.308149   2.507940   0.000000
    14  H    4.907226   4.315619   2.515329   0.000000
 Stoichiometry    C5H4FNO2S
 Framework group  C1[X(C5H4FNO2S)]
 Deg. of freedom    36
 Full point group                 C1      NOp   1
 Largest Abelian subgroup         C1      NOp   1
 Largest concise Abelian subgroup C1      NOp   1
                         Standard orientation:                         
 ---------------------------------------------------------------------
 Center     Atomic      Atomic             Coordinates (Angstroms)
 Number     Number       Type             X           Y           Z
 ---------------------------------------------------------------------
      1          9           0       -1.869097    1.074179   -0.913687
      2         16           0       -1.455413   -0.091744    0.089587
      3          6           0        0.332506   -0.011041   -0.037978
      4          7           0        0.888204    1.191874   -0.028096
      5          6           0        2.223958    1.228521   -0.005242
      6          6           0        3.018459    0.084888    0.028332
      7          6           0        2.399879   -1.163210    0.014876
      8          6           0        1.011175   -1.225649   -0.034250
      9          8           0       -1.895150    0.318711    1.402558
     10          8           0       -1.887932   -1.340172   -0.500327
     11          1           0        2.669779    2.220476   -0.012982
     12          1           0        4.100530    0.172941    0.055934
     13          1           0        2.990132   -2.075577    0.025157
     14          1           0        0.479399   -2.170032   -0.093922
 ---------------------------------------------------------------------
 Rotational constants (GHZ):           2.6518995           0.8492111           0.7405611
 Standard basis: 6-31G(d) (6D, 7F)
 There are   162 symmetry adapted cartesian basis functions of A   symmetry.
 There are   162 symmetry adapted basis functions of A   symmetry.
   162 basis functions,   320 primitive gaussians,   162 cartesian basis functions
    41 alpha electrons       41 beta electrons
       nuclear repulsion energy       640.6250644361 Hartrees.
 NAtoms=   14 NActive=   14 NUniq=   14 SFac= 1.00D+00 NAtFMM=   60 NAOKFM=F Big=F
 Integral buffers will be    131072 words long.
 Raffenetti 2 integral format.
 Two-electron integral symmetry is turned on.
 R6APFD:  NTU= -4 IXU= 1 FactS= 1.050
 Nuclear repulsion after empirical dispersion term =      640.6136924671 Hartrees.
 One-electron integrals computed using PRISM.
 NBasis=   162 RedAO= T EigKep=  8.50D-04  NBF=   162
 NBsUse=   162 1.00D-06 EigRej= -1.00D+00 NBFU=   162
 Initial guess from the checkpoint file:  "FCFXLXGZHDHJLB-UHFFFAOYSA-N_conf_0_0.chk"
 B after Tr=     0.000000    0.000000    0.000000
         Rot=    0.994578    0.103954   -0.001216   -0.002386 Ang=  11.94 deg.
 ExpMin= 1.17D-01 ExpMax= 2.19D+04 ExpMxC= 3.30D+03 IAcc=2 IRadAn=         4 AccDes= 0.00D+00
 Harris functional with IExCor= 3731 and IRadAn=       4 diagonalized for initial guess.
 HarFok:  IExCor= 3731 AccDes= 0.00D+00 IRadAn=         4 IDoV= 1 UseB2=F ITyADJ=14
 ICtDFT=  3500011 ScaDFX=  1.000000  1.000000  1.000000  1.000000
 FoFCou: FMM=F IPFlag=           0 FMFlag=      100000 FMFlg1=           0
         NFxFlg=           0 DoJE=T BraDBF=F KetDBF=T FulRan=T
         wScrn=  0.000000 ICntrl=       500 IOpCl=  0 I1Cent=   200000004 NGrid=           0
         NMat0=    1 NMatS0=      1 NMatT0=    0 NMatD0=    1 NMtDS0=    0 NMtDT0=    0
 Petite list used in FoFCou.
 Keep R1 ints in memory in canonical form, NReq=89332538.
 Requested convergence on RMS density matrix=1.00D-08 within  32 cycles.
 Requested convergence on MAX density matrix=1.00D-06.
 Requested convergence on             energy=1.00D-06.
 No special actions if energy rises.
 Integral accuracy reduced to 1.0D-05 until final iterations.
 Initial convergence to 1.0D-05 achieved.  Increase integral accuracy.
 SCF Done:  E(RAPFD) =  -895.609460622     A.U. after   15 cycles
            NFock= 15  Conv=0.58D-08     -V/T= 2.0062
 QCSCF skips out because SCF is already converged.
 R6APFD:  NTU= -4 IXU= 1 FactS= 1.050
 Calling FoFJK, ICntrl=      2127 FMM=F ISym2X=0 I1Cent= 0 IOpClX= 0 NMat=1 NMatS=1 NMatT=0.
 ***** Axes restored to original set *****
 -------------------------------------------------------------------
 Center     Atomic                   Forces (Hartrees/Bohr)
 Number     Number              X              Y              Z
 -------------------------------------------------------------------
      1        9          -0.001158334   -0.001314462   -0.002818613
      2       16           0.000909740    0.004694059    0.004388718
      3        6          -0.002672360   -0.002575009    0.000134941
      4        7          -0.000533640    0.002258125    0.002417519
      5        6           0.004085661   -0.002005821   -0.001036846
      6        6           0.000090349    0.002417282    0.000363337
      7        6          -0.002075842   -0.001177132   -0.001581407
      8        6           0.000811029    0.001360423   -0.001344163
      9        8          -0.001061279   -0.000921997   -0.001686270
     10        8           0.000930838   -0.001388614   -0.000510671
     11        1           0.000064880   -0.000094993    0.000039235
     12        1          -0.000072127   -0.000173788    0.000270309
     13        1           0.000080758    0.000000689    0.000115638
     14        1           0.000600326   -0.001078761    0.001248273
 -------------------------------------------------------------------
 Cartesian Forces:  Max     0.004694059 RMS     0.001756224

 GradGradGradGradGradGradGradGradGradGradGradGradGradGradGradGradGradGrad
 Berny optimization.
 Using GEDIIS/GDIIS optimizer.
 FormGI is forming the generalized inverse of G from B-inverse, IUseBI=4.
 Internal  Forces:  Max     0.005166243 RMS     0.001408376
 Search for a local minimum.
 Step number   3 out of a maximum of   72
 All quantities printed in internal units (Hartrees-Bohrs-Radians)
 Mixed Optimization -- RFO/linear search
 Update second derivatives using D2CorX and points    2    3
 DE= -1.98D-03 DEPred=-4.35D-03 R= 4.54D-01
 Trust test= 4.54D-01 RLast= 1.02D+00 DXMaxT set to 5.05D-01
 ITU=  0  1  0
 Use linear search instead of GDIIS.
     Eigenvalues ---    0.00065   0.01580   0.01709   0.01907   0.02316
     Eigenvalues ---    0.02572   0.02852   0.02924   0.03693   0.11048
     Eigenvalues ---    0.11854   0.12381   0.13296   0.14453   0.15753
     Eigenvalues ---    0.15803   0.18122   0.18499   0.19205   0.20821
     Eigenvalues ---    0.22892   0.26071   0.28740   0.31724   0.36454
     Eigenvalues ---    0.36682   0.37053   0.37245   0.39324   0.43796
     Eigenvalues ---    0.46814   0.49371   0.51168   0.59581   0.66680
     Eigenvalues ---    0.69169
 RFO step:  Lambda=-9.85410244D-04 EMin= 6.53868819D-04
 Quartic linear search produced a step of  0.23036.
 Iteration  1 RMS(Cart)=  0.10366475 RMS(Int)=  0.01603737
 Iteration  2 RMS(Cart)=  0.02536590 RMS(Int)=  0.00040977
 Iteration  3 RMS(Cart)=  0.00044816 RMS(Int)=  0.00003401
 Iteration  4 RMS(Cart)=  0.00000013 RMS(Int)=  0.00003401
 Variable       Old X    -DE/DX   Delta X   Delta X   Delta X     New X
                                 (Linear)    (Quad)   (Total)
    R1        3.00999   0.00263   0.00150   0.01204   0.01354   3.02353
    R2        3.39070  -0.00045   0.00006   0.00356   0.00361   3.39431
    R3        2.72916  -0.00140   0.00020  -0.00183  -0.00164   2.72752
    R4        2.73433  -0.00074   0.00086  -0.00112  -0.00026   2.73407
    R5        2.50408  -0.00311   0.00399   0.00179   0.00580   2.50988
    R6        2.62929  -0.00043  -0.00045  -0.00273  -0.00318   2.62611
    R7        2.52553  -0.00349   0.00058  -0.00884  -0.00827   2.51726
    R8        2.63226   0.00177   0.00007   0.00603   0.00610   2.63836
    R9        2.05519   0.00005  -0.00000   0.00034   0.00034   2.05553
   R10        2.63247  -0.00091  -0.00015  -0.00377  -0.00393   2.62854
   R11        2.05224   0.00008  -0.00003   0.00026   0.00023   2.05247
   R12        2.62856   0.00124   0.00033   0.00497   0.00530   2.63386
   R13        2.05357  -0.00003   0.00004   0.00002   0.00006   2.05363
   R14        2.05121  -0.00053  -0.00009  -0.00144  -0.00153   2.04967
    A1        1.75289  -0.00517   0.00636  -0.01697  -0.01061   1.74228
    A2        1.86034   0.00114  -0.00282  -0.00195  -0.00480   1.85555
    A3        1.87248  -0.00043  -0.00120  -0.00859  -0.00976   1.86272
    A4        1.93398  -0.00113   0.00276   0.00446   0.00714   1.94113
    A5        1.88355   0.00361  -0.00438   0.00987   0.00542   1.88898
    A6        2.12333   0.00067   0.00049   0.00724   0.00761   2.13095
    A7        2.04674  -0.00359  -0.00235  -0.02052  -0.02297   2.02377
    A8        2.03375   0.00238   0.00249   0.02034   0.02274   2.05648
    A9        2.19925   0.00126  -0.00078   0.00125   0.00039   2.19964
   A10        2.03104   0.00069  -0.00046   0.00263   0.00218   2.03322
   A11        2.15075  -0.00033   0.00027  -0.00220  -0.00194   2.14881
   A12        2.02039   0.00006  -0.00006   0.00286   0.00280   2.02319
   A13        2.11205   0.00027  -0.00020  -0.00067  -0.00086   2.11118
   A14        2.07383  -0.00001   0.00008   0.00107   0.00113   2.07497
   A15        2.09712  -0.00014  -0.00004  -0.00192  -0.00196   2.09517
   A16        2.11219   0.00015  -0.00005   0.00090   0.00085   2.11304
   A17        2.07588  -0.00054   0.00046   0.00026   0.00070   2.07659
   A18        2.10707   0.00035  -0.00029   0.00092   0.00062   2.10769
   A19        2.10009   0.00019  -0.00019  -0.00103  -0.00123   2.09886
   A20        2.03520  -0.00106   0.00036  -0.00259  -0.00223   2.03297
   A21        2.11811  -0.00047  -0.00041  -0.00633  -0.00677   2.11135
   A22        2.12952   0.00153  -0.00002   0.00916   0.00912   2.13865
    D1        0.75963   0.00029   0.10106   0.14351   0.24461   1.00424
    D2       -2.46572   0.00089   0.09015   0.15646   0.24663  -2.21909
    D3       -1.20157   0.00192   0.10028   0.15238   0.25270  -0.94887
    D4        1.85627   0.00252   0.08937   0.16533   0.25471   2.11098
    D5        2.71706  -0.00118   0.10107   0.13011   0.23114   2.94820
    D6       -0.50829  -0.00059   0.09016   0.14306   0.23315  -0.27514
    D7        3.04227   0.00107  -0.01248   0.02589   0.01348   3.05576
    D8       -0.00666   0.00038  -0.00048   0.01070   0.01022   0.00357
    D9       -3.02254  -0.00097   0.01507  -0.03147  -0.01638  -3.03892
   D10        0.14694  -0.00107   0.01892  -0.04116  -0.02222   0.12473
   D11        0.02700  -0.00057   0.00305  -0.01829  -0.01524   0.01177
   D12       -3.08670  -0.00067   0.00689  -0.02799  -0.02107  -3.10777
   D13       -0.01746  -0.00006  -0.00235   0.00334   0.00101  -0.01645
   D14        3.12559   0.00002  -0.00214   0.00357   0.00144   3.12703
   D15        0.01964  -0.00005   0.00244  -0.00865  -0.00621   0.01343
   D16       -3.13085   0.00016   0.00137  -0.00269  -0.00132  -3.13217
   D17       -3.12348  -0.00014   0.00221  -0.00889  -0.00667  -3.13015
   D18        0.00921   0.00007   0.00115  -0.00292  -0.00177   0.00744
   D19        0.00219  -0.00015   0.00032   0.00047   0.00079   0.00298
   D20        3.12551   0.00027  -0.00195   0.01044   0.00849   3.13400
   D21       -3.13042  -0.00035   0.00140  -0.00553  -0.00414  -3.13456
   D22       -0.00710   0.00007  -0.00088   0.00444   0.00356  -0.00354
   D23       -0.02320   0.00045  -0.00280   0.01165   0.00885  -0.01435
   D24        3.09030   0.00051  -0.00668   0.02114   0.01450   3.10480
   D25        3.13659   0.00003  -0.00054   0.00171   0.00116   3.13776
   D26       -0.03309   0.00010  -0.00441   0.01120   0.00682  -0.02627
         Item               Value     Threshold  Converged?
 Maximum Force            0.005166     0.000450     NO 
 RMS     Force            0.001408     0.000300     NO 
 Maximum Displacement     0.476843     0.001800     NO 
 RMS     Displacement     0.126700     0.001200     NO 
 Predicted change in Energy=-1.028365D-03
 GradGradGradGradGradGradGradGradGradGradGradGradGradGradGradGradGradGrad

                          Input orientation:                          
 ---------------------------------------------------------------------
 Center     Atomic      Atomic             Coordinates (Angstroms)
 Number     Number       Type             X           Y           Z
 ---------------------------------------------------------------------
      1          9           0        2.708658   -1.055091   -1.222557
      2         16           0        2.378847   -0.205195    0.092303
      3          6           0        0.587913   -0.137943   -0.027411
      4          7           0       -0.035910   -1.309554   -0.074413
      5          6           0       -1.367465   -1.274777   -0.061051
      6          6           0       -2.098784   -0.088102    0.017898
      7          6           0       -1.413592    1.121275    0.069909
      8          6           0       -0.020224    1.109895    0.037940
      9          8           0        2.797527   -1.012923    1.212801
     10          8           0        2.897779    1.126636   -0.131719
     11          1           0       -1.868832   -2.238622   -0.114083
     12          1           0       -3.184359   -0.118414    0.034069
     13          1           0       -1.952363    2.063462    0.124658
     14          1           0        0.570805    2.019352    0.041654
 ---------------------------------------------------------------------
                    Distance matrix (angstroms):
                    1          2          3          4          5
     1  F    0.000000
     2  S    1.599986   0.000000
     3  C    2.601363   1.796191   0.000000
     4  N    2.985907   2.660537   1.328170   0.000000
     5  C    4.244071   3.899023   2.262084   1.332076   0.000000
     6  C    5.058190   4.479780   2.687541   2.399148   1.396157
     7  C    4.837352   4.017788   2.366669   2.797814   2.400071
     8  C    3.704432   2.736414   1.389677   2.422107   2.740714
     9  O    2.437344   1.443341   2.680693   3.126224   4.363305
    10  O    2.446554   1.446807   2.635435   3.813769   4.895312
    11  H    4.856220   4.713831   3.233568   2.055321   1.087740
    12  H    6.097878   5.564188   3.772823   3.367983   2.155766
    13  H    5.767623   4.889503   3.364864   3.884541   3.394176
    14  H    3.952322   2.867088   2.158468   3.385734   3.823444
                    6          7          8          9         10
     6  C    0.000000
     7  C    1.390966   0.000000
     8  C    2.399168   1.393780   0.000000
     9  O    5.124153   4.857420   3.718384   0.000000
    10  O    5.144279   4.316086   2.922979   2.528932   0.000000
    11  H    2.166802   3.395586   3.827927   5.003785   5.834882
    12  H    1.086119   2.161881   3.394187   6.162185   6.210478
    13  H    2.159182   1.086733   2.156379   5.762782   4.946438
    14  H    3.401270   2.178342   1.084640   3.940123   2.498361
                   11         12         13         14
    11  H    0.000000
    12  H    2.499568   0.000000
    13  H    4.309513   2.507310   0.000000
    14  H    4.909830   4.321037   2.524919   0.000000
 Stoichiometry    C5H4FNO2S
 Framework group  C1[X(C5H4FNO2S)]
 Deg. of freedom    36
 Full point group                 C1      NOp   1
 Largest Abelian subgroup         C1      NOp   1
 Largest concise Abelian subgroup C1      NOp   1
                         Standard orientation:                         
 ---------------------------------------------------------------------
 Center     Atomic      Atomic             Coordinates (Angstroms)
 Number     Number       Type             X           Y           Z
 ---------------------------------------------------------------------
      1          9           0       -1.847276    0.819548   -1.157432
      2         16           0       -1.456704   -0.071745    0.112609
      3          6           0        0.334089   -0.022870   -0.017664
      4          7           0        0.884713    1.185759   -0.009491
      5          6           0        2.215962    1.232270   -0.003355
      6          6           0        3.019057    0.090346    0.014044
      7          6           0        2.409528   -1.159949    0.009267
      8          6           0        1.017882   -1.232674   -0.016349
      9          8           0       -1.916003    0.652969    1.273241
     10          8           0       -1.894768   -1.420401   -0.174579
     11          1           0        2.657030    2.226544   -0.010930
     12          1           0        4.100832    0.186490    0.027206
     13          1           0        3.005311   -2.068792    0.015330
     14          1           0        0.483642   -2.175828   -0.054983
 ---------------------------------------------------------------------
 Rotational constants (GHZ):           2.6493645           0.8475115           0.7404397
 Standard basis: 6-31G(d) (6D, 7F)
 There are   162 symmetry adapted cartesian basis functions of A   symmetry.
 There are   162 symmetry adapted basis functions of A   symmetry.
   162 basis functions,   320 primitive gaussians,   162 cartesian basis functions
    41 alpha electrons       41 beta electrons
       nuclear repulsion energy       640.2369260000 Hartrees.
 NAtoms=   14 NActive=   14 NUniq=   14 SFac= 1.00D+00 NAtFMM=   60 NAOKFM=F Big=F
 Integral buffers will be    131072 words long.
 Raffenetti 2 integral format.
 Two-electron integral symmetry is turned on.
 R6APFD:  NTU= -4 IXU= 1 FactS= 1.050
 Nuclear repulsion after empirical dispersion term =      640.2255953761 Hartrees.
 One-electron integrals computed using PRISM.
 NBasis=   162 RedAO= T EigKep=  8.47D-04  NBF=   162
 NBsUse=   162 1.00D-06 EigRej= -1.00D+00 NBFU=   162
 Initial guess from the checkpoint file:  "FCFXLXGZHDHJLB-UHFFFAOYSA-N_conf_0_0.chk"
 B after Tr=    -0.000000   -0.000000   -0.000000
         Rot=    0.998086    0.061833    0.001321   -0.000248 Ang=   7.09 deg.
 ExpMin= 1.17D-01 ExpMax= 2.19D+04 ExpMxC= 3.30D+03 IAcc=2 IRadAn=         4 AccDes= 0.00D+00
 Harris functional with IExCor= 3731 and IRadAn=       4 diagonalized for initial guess.
 HarFok:  IExCor= 3731 AccDes= 0.00D+00 IRadAn=         4 IDoV= 1 UseB2=F ITyADJ=14
 ICtDFT=  3500011 ScaDFX=  1.000000  1.000000  1.000000  1.000000
 FoFCou: FMM=F IPFlag=           0 FMFlag=      100000 FMFlg1=           0
         NFxFlg=           0 DoJE=T BraDBF=F KetDBF=T FulRan=T
         wScrn=  0.000000 ICntrl=       500 IOpCl=  0 I1Cent=   200000004 NGrid=           0
         NMat0=    1 NMatS0=      1 NMatT0=    0 NMatD0=    1 NMtDS0=    0 NMtDT0=    0
 Petite list used in FoFCou.
 Keep R1 ints in memory in canonical form, NReq=89332538.
 Requested convergence on RMS density matrix=1.00D-08 within  32 cycles.
 Requested convergence on MAX density matrix=1.00D-06.
 Requested convergence on             energy=1.00D-06.
 No special actions if energy rises.
 Integral accuracy reduced to 1.0D-05 until final iterations.
 Initial convergence to 1.0D-05 achieved.  Increase integral accuracy.
 SCF Done:  E(RAPFD) =  -895.610474174     A.U. after   14 cycles
            NFock= 14  Conv=0.65D-08     -V/T= 2.0062
 QCSCF skips out because SCF is already converged.
 R6APFD:  NTU= -4 IXU= 1 FactS= 1.050
 Calling FoFJK, ICntrl=      2127 FMM=F ISym2X=0 I1Cent= 0 IOpClX= 0 NMat=1 NMatS=1 NMatT=0.
 ***** Axes restored to original set *****
 -------------------------------------------------------------------
 Center     Atomic                   Forces (Hartrees/Bohr)
 Number     Number              X              Y              Z
 -------------------------------------------------------------------
      1        9          -0.001428562   -0.000056905   -0.001167581
      2       16           0.001584410    0.001764597    0.001860120
      3        6          -0.002673593   -0.004888531    0.001821748
      4        7           0.002109595    0.003590696    0.001022482
      5        6           0.001300568   -0.000488005   -0.000810743
      6        6           0.000131202    0.000659208    0.000171847
      7        6          -0.000514447   -0.000255323   -0.001150518
      8        6           0.000866156    0.000150433   -0.001523465
      9        8          -0.001926740    0.000555743   -0.001563351
     10        8           0.000222973   -0.000728029   -0.000205085
     11        1           0.000064448   -0.000041992    0.000085187
     12        1          -0.000022890   -0.000016805    0.000243202
     13        1           0.000049759   -0.000015331    0.000047439
     14        1           0.000237121   -0.000229756    0.001168719
 -------------------------------------------------------------------
 Cartesian Forces:  Max     0.004888531 RMS     0.001394724

 GradGradGradGradGradGradGradGradGradGradGradGradGradGradGradGradGradGrad
 Berny optimization.
 Using GEDIIS/GDIIS optimizer.
 FormGI is forming the generalized inverse of G from B-inverse, IUseBI=4.
 Internal  Forces:  Max     0.004588089 RMS     0.001100958
 Search for a local minimum.
 Step number   4 out of a maximum of   72
 All quantities printed in internal units (Hartrees-Bohrs-Radians)
 Mixed Optimization -- RFO/linear search
 Update second derivatives using D2CorX and points    3    4
 DE= -1.01D-03 DEPred=-1.03D-03 R= 9.86D-01
 TightC=F SS=  1.41D+00  RLast= 6.01D-01 DXNew= 8.4853D-01 1.8035D+00
 Trust test= 9.86D-01 RLast= 6.01D-01 DXMaxT set to 8.49D-01
 ITU=  1  0  1  0
 Use linear search instead of GDIIS.
     Eigenvalues ---    0.00158   0.01146   0.01689   0.01903   0.02263
     Eigenvalues ---    0.02506   0.02785   0.02912   0.03684   0.11059
     Eigenvalues ---    0.11768   0.12291   0.12728   0.13304   0.15747
     Eigenvalues ---    0.15955   0.17396   0.18455   0.19070   0.20803
     Eigenvalues ---    0.22310   0.23886   0.28926   0.31633   0.36433
     Eigenvalues ---    0.36679   0.37053   0.37225   0.39401   0.43857
     Eigenvalues ---    0.46015   0.49503   0.50669   0.56766   0.66701
     Eigenvalues ---    0.67793
 RFO step:  Lambda=-5.39239060D-04 EMin= 1.58410457D-03
 Quartic linear search produced a step of  0.56303.
 Iteration  1 RMS(Cart)=  0.07551699 RMS(Int)=  0.00311299
 Iteration  2 RMS(Cart)=  0.00384665 RMS(Int)=  0.00017212
 Iteration  3 RMS(Cart)=  0.00000712 RMS(Int)=  0.00017206
 Iteration  4 RMS(Cart)=  0.00000000 RMS(Int)=  0.00017206
 Variable       Old X    -DE/DX   Delta X   Delta X   Delta X     New X
                                 (Linear)    (Quad)   (Total)
    R1        3.02353   0.00070   0.00763   0.00611   0.01373   3.03727
    R2        3.39431  -0.00167   0.00203  -0.00113   0.00090   3.39521
    R3        2.72752  -0.00208  -0.00092  -0.00313  -0.00405   2.72347
    R4        2.73407  -0.00056  -0.00014  -0.00174  -0.00188   2.73219
    R5        2.50988  -0.00459   0.00326  -0.01096  -0.00763   2.50225
    R6        2.62611  -0.00062  -0.00179  -0.00058  -0.00229   2.62382
    R7        2.51726  -0.00109  -0.00466  -0.00080  -0.00547   2.51179
    R8        2.63836   0.00051   0.00343   0.00110   0.00445   2.64281
    R9        2.05553   0.00000   0.00019  -0.00005   0.00014   2.05567
   R10        2.62854  -0.00039  -0.00221   0.00050  -0.00177   2.62678
   R11        2.05247   0.00003   0.00013   0.00014   0.00027   2.05273
   R12        2.63386   0.00006   0.00298   0.00002   0.00302   2.63689
   R13        2.05363  -0.00004   0.00003  -0.00011  -0.00007   2.05356
   R14        2.04967  -0.00006  -0.00086  -0.00002  -0.00088   2.04879
    A1        1.74228  -0.00399  -0.00597  -0.01280  -0.01878   1.72350
    A2        1.85555   0.00178  -0.00270   0.00494   0.00217   1.85771
[...]
 Alpha virt. eigenvalues --    0.32142   0.33639   0.36658   0.39641   0.45988
 Alpha virt. eigenvalues --    0.47539   0.50260   0.52993   0.55934   0.56797
 Alpha virt. eigenvalues --    0.57354   0.57646   0.58393   0.61063   0.61708
 Alpha virt. eigenvalues --    0.62703   0.66876   0.72115   0.75143   0.76767
 Alpha virt. eigenvalues --    0.78057   0.81226   0.81997   0.82418   0.84789
 Alpha virt. eigenvalues --    0.86475   0.87322   0.89185   0.90786   0.92459
 Alpha virt. eigenvalues --    0.96371   0.99526   1.00377   1.03273   1.04680
 Alpha virt. eigenvalues --    1.05315   1.08696   1.12038   1.15444   1.16814
 Alpha virt. eigenvalues --    1.17470   1.20690   1.24763   1.25522   1.30058
 Alpha virt. eigenvalues --    1.37092   1.38140   1.41170   1.42476   1.43032
 Alpha virt. eigenvalues --    1.44591   1.46887   1.48728   1.52517   1.62486
 Alpha virt. eigenvalues --    1.67045   1.72096   1.75302   1.77681   1.78028
 Alpha virt. eigenvalues --    1.78410   1.78943   1.82076   1.84523   1.85121
 Alpha virt. eigenvalues --    1.87404   1.89318   1.90956   1.94214   1.95766
 Alpha virt. eigenvalues --    1.97976   2.09610   2.10301   2.12407   2.13154
 Alpha virt. eigenvalues --    2.14413   2.15646   2.17371   2.23498   2.26429
 Alpha virt. eigenvalues --    2.28933   2.31141   2.35998   2.49627   2.54983
 Alpha virt. eigenvalues --    2.60755   2.63805   2.65219   2.66136   2.69138
 Alpha virt. eigenvalues --    2.77000   2.78364   2.82117   2.85029   3.06759
 Alpha virt. eigenvalues --    3.33932   3.74475   3.87017   3.99195   4.04592
 Alpha virt. eigenvalues --    4.09725   4.15545   4.24507   4.32871   4.55109
 Alpha virt. eigenvalues --    4.67326
          Condensed to atoms (all electrons):
               1          2          3          4          5          6
     1  F    9.210204   0.198360  -0.043260   0.000066  -0.000044  -0.000006
     2  S    0.198360  13.483502   0.237786  -0.032053   0.001563   0.000198
     3  C   -0.043260   0.237786   5.489936   0.194210  -0.062488  -0.019188
     4  N    0.000066  -0.032053   0.194210   6.881387   0.407068  -0.037245
     5  C   -0.000044   0.001563  -0.062488   0.407068   4.776509   0.555553
     6  C   -0.000006   0.000198  -0.019188  -0.037245   0.555553   5.020475
     7  C   -0.000026   0.000923  -0.053765  -0.025106  -0.029940   0.431341
     8  C   -0.000202  -0.023041   0.467445  -0.021695  -0.039212  -0.030534
     9  O   -0.035434   0.449387  -0.058199   0.001877   0.000076  -0.000012
    10  O   -0.032446   0.446768  -0.053033   0.001480  -0.000038  -0.000016
    11  H    0.000001  -0.000094   0.004340  -0.044071   0.364156  -0.028897
    12  H    0.000000   0.000006  -0.000019   0.003241  -0.037535   0.376238
    13  H    0.000000  -0.000045   0.005555   0.000261   0.004926  -0.038042
    14  H    0.000031  -0.004124  -0.036701   0.003441  -0.000101   0.003988
               7          8          9         10         11         12
     1  F   -0.000026  -0.000202  -0.035434  -0.032446   0.000001   0.000000
     2  S    0.000923  -0.023041   0.449387   0.446768  -0.000094   0.000006
     3  C   -0.053765   0.467445  -0.058199  -0.053033   0.004340  -0.000019
     4  N   -0.025106  -0.021695   0.001877   0.001480  -0.044071   0.003241
     5  C   -0.029940  -0.039212   0.000076  -0.000038   0.364156  -0.037535
     6  C    0.431341  -0.030534  -0.000012  -0.000016  -0.028897   0.376238
     7  C    4.995963   0.538119  -0.000045   0.000697   0.003006  -0.033742
     8  C    0.538119   4.909536   0.000328  -0.001013   0.000795   0.004786
     9  O   -0.000045   0.000328   8.140717  -0.038513   0.000006   0.000000
    10  O    0.000697  -0.001013  -0.038513   8.147353   0.000000   0.000000
    11  H    0.003006   0.000795   0.000006   0.000000   0.473019  -0.004189
    12  H   -0.033742   0.004786   0.000000   0.000000  -0.004189   0.494427
    13  H    0.368235  -0.038018   0.000000   0.000001  -0.000103  -0.003682
    14  H   -0.027695   0.363937   0.000068   0.009269   0.000008  -0.000124
              13         14
     1  F    0.000000   0.000031
     2  S   -0.000045  -0.004124
     3  C    0.005555  -0.036701
     4  N    0.000261   0.003441
     5  C    0.004926  -0.000101
     6  C   -0.038042   0.003988
     7  C    0.368235  -0.027695
     8  C   -0.038018   0.363937
     9  O    0.000000   0.000068
    10  O    0.000001   0.009269
    11  H   -0.000103   0.000008
    12  H   -0.003682  -0.000124
    13  H    0.506514  -0.003426
    14  H   -0.003426   0.445694
 Mulliken charges:
               1
     1  F   -0.297246
     2  S    1.240865
     3  C   -0.072619
     4  N   -0.332861
     5  C    0.059508
     6  C   -0.233855
     7  C   -0.167966
     8  C   -0.131232
     9  O   -0.460257
    10  O   -0.480511
    11  H    0.232023
    12  H    0.200593
    13  H    0.197824
    14  H    0.245735
 Sum of Mulliken charges =  -0.00000
 Mulliken charges with hydrogens summed into heavy atoms:
               1
     1  F   -0.297246
     2  S    1.240865
     3  C   -0.072619
     4  N   -0.332861
     5  C    0.291531
     6  C   -0.033262
     7  C    0.029859
     8  C    0.114503
     9  O   -0.460257
    10  O   -0.480511
 Electronic spatial extent (au):  <R**2>=           1518.2753
 Charge=              0.0000 electrons
 Dipole moment (field-independent basis, Debye):
    X=              5.4592    Y=              0.3579    Z=             -0.6998  Tot=              5.5155
 Quadrupole moment (field-independent basis, Debye-Ang):
   XX=            -58.7272   YY=            -58.1010   ZZ=            -66.5253
   XY=              0.9574   XZ=              1.7070   YZ=             -1.1539
 Traceless Quadrupole moment (field-independent basis, Debye-Ang):
   XX=              2.3906   YY=              3.0169   ZZ=             -5.4075
   XY=              0.9574   XZ=              1.7070   YZ=             -1.1539
 Octapole moment (field-independent basis, Debye-Ang**2):
  XXX=             16.5444  YYY=              5.7896  ZZZ=             -6.6179  XYY=             12.6581
  XXY=              7.6773  XXZ=             -6.9141  XZZ=            -12.3171  YZZ=             -0.1159
  YYZ=             -3.3929  XYZ=              2.1452
 Hexadecapole moment (field-independent basis, Debye-Ang**3):
 XXXX=          -1213.9347 YYYY=           -351.8726 ZZZZ=           -151.6329 XXXY=              2.6237
 XXXZ=             17.4849 YYYX=             -0.2307 YYYZ=             -4.1875 ZZZX=             11.7912
 ZZZY=             -4.5173 XXYY=           -265.8583 XXZZ=           -273.5027 YYZZ=            -95.1321
 XXYZ=             -5.2004 YYXZ=              5.8112 ZZXY=              4.4773
 N-N= 6.408875332087D+02 E-N=-3.391704000301D+03  KE= 8.900785225798D+02
 Evaluate density.
 Using the total density.
 Monte-Carlo method of calculating molar volume:
 based on  0.001 e/bohr**3 density envelope.
 Number of points per bohr**3 =   20 CutOff= 1.00D-04
 Using the CI density.
 There are       385 points.  Will hold       385 in memory.
 LenV=   536780596 MDV=   536870912.
 Box volume = 7133.459 fraction occupied=0.153
 Integrated density= 6.9617512315415183D+01 error=-1.2382487684584817D+01
 Molar volume = 1093.179 bohr**3/mol ( 97.554 cm**3/mol)
 Recommended a0 for SCRF calculation =  4.22 angstrom (  7.98 bohr)
 ******************************Gaussian NBO Version 3.1******************************
             N A T U R A L   A T O M I C   O R B I T A L   A N D
          N A T U R A L   B O N D   O R B I T A L   A N A L Y S I S
 ******************************Gaussian NBO Version 3.1******************************
       /RESON  / : Allow strongly delocalized NBO set

 Analyzing the CI density

 Job title: FCFXLXGZHDHJLB-UHFFFAOYSA-N_conf_0                              

 Storage needed:     79500 in NPA ( 536869792 available)


 NATURAL POPULATIONS:  Natural atomic orbital occupancies 
                                                          
   NAO  Atom  No  lang   Type(AO)    Occupancy
 --------------------------------------------
     1    F    1  S      Cor( 1S)     1.99997
     2    F    1  S      Val( 2S)     1.92810
     3    F    1  S      Ryd( 3S)     0.00265
     4    F    1  S      Ryd( 4S)     0.00012
     5    F    1  px     Val( 2p)     1.94109
     6    F    1  px     Ryd( 3p)     0.00017
     7    F    1  py     Val( 2p)     1.90989
     8    F    1  py     Ryd( 3p)     0.00012
     9    F    1  pz     Val( 2p)     1.71247
    10    F    1  pz     Ryd( 3p)     0.00050
    11    F    1  dxy    Ryd( 3d)     0.00042
    12    F    1  dxz    Ryd( 3d)     0.00173
    13    F    1  dyz    Ryd( 3d)     0.00183
    14    F    1  dx2y2  Ryd( 3d)     0.00040
    15    F    1  dz2    Ryd( 3d)     0.00216
 
    16    S    2  S      Cor( 1S)     2.00000
    17    S    2  S      Cor( 2S)     1.99912
    18    S    2  S      Val( 3S)     1.02970
    19    S    2  S      Ryd( 4S)     0.00450
    20    S    2  S      Ryd( 5S)     0.00028
    21    S    2  px     Cor( 2p)     1.99991
    22    S    2  px     Val( 3p)     0.89001
    23    S    2  px     Ryd( 4p)     0.00947
    24    S    2  py     Cor( 2p)     1.99989
    25    S    2  py     Val( 3p)     0.70026
    26    S    2  py     Ryd( 4p)     0.01393
    27    S    2  pz     Cor( 2p)     1.99988
    28    S    2  pz     Val( 3p)     0.76911
    29    S    2  pz     Ryd( 4p)     0.00934
    30    S    2  dxy    Ryd( 3d)     0.03031
    31    S    2  dxz    Ryd( 3d)     0.02347
    32    S    2  dyz    Ryd( 3d)     0.03941
    33    S    2  dx2y2  Ryd( 3d)     0.04189
    34    S    2  dz2    Ryd( 3d)     0.03597
 
    35    C    3  S      Cor( 1S)     1.99877
    36    C    3  S      Val( 2S)     0.93276
    37    C    3  S      Ryd( 3S)     0.00385
    38    C    3  S      Ryd( 4S)     0.00012
    39    C    3  px     Val( 2p)     1.07565
    40    C    3  px     Ryd( 3p)     0.00780
    41    C    3  py     Val( 2p)     0.96136
    42    C    3  py     Ryd( 3p)     0.01339
    43    C    3  pz     Val( 2p)     1.25650
    44    C    3  pz     Ryd( 3p)     0.00639
    45    C    3  dxy    Ryd( 3d)     0.00088
    46    C    3  dxz    Ryd( 3d)     0.00099
    47    C    3  dyz    Ryd( 3d)     0.00161
    48    C    3  dx2y2  Ryd( 3d)     0.00136
    49    C    3  dz2    Ryd( 3d)     0.00057
 
    50    N    4  S      Cor( 1S)     1.99884
    51    N    4  S      Val( 2S)     1.25551
    52    N    4  S      Ryd( 3S)     0.00050
    53    N    4  S      Ryd( 4S)     0.00001
    54    N    4  px     Val( 2p)     1.18984
    55    N    4  px     Ryd( 3p)     0.00408
    56    N    4  py     Val( 2p)     1.15952
    57    N    4  py     Ryd( 3p)     0.00414
    58    N    4  pz     Val( 2p)     1.51830
    59    N    4  pz     Ryd( 3p)     0.00515
    60    N    4  dxy    Ryd( 3d)     0.00038
    61    N    4  dxz    Ryd( 3d)     0.00156
    62    N    4  dyz    Ryd( 3d)     0.00130
    63    N    4  dx2y2  Ryd( 3d)     0.00080
    64    N    4  dz2    Ryd( 3d)     0.00018
 
    65    C    5  S      Cor( 1S)     1.99913
    66    C    5  S      Val( 2S)     0.95392
    67    C    5  S      Ryd( 3S)     0.00140
    68    C    5  S      Ryd( 4S)     0.00008
    69    C    5  px     Val( 2p)     0.90303
    70    C    5  px     Ryd( 3p)     0.00599
    71    C    5  py     Val( 2p)     1.17718
    72    C    5  py     Ryd( 3p)     0.00623
    73    C    5  pz     Val( 2p)     0.93620
    74    C    5  pz     Ryd( 3p)     0.00092
    75    C    5  dxy    Ryd( 3d)     0.00094
    76    C    5  dxz    Ryd( 3d)     0.00237
    77    C    5  dyz    Ryd( 3d)     0.00057
    78    C    5  dx2y2  Ryd( 3d)     0.00137
    79    C    5  dz2    Ryd( 3d)     0.00056
 
    80    C    6  S      Cor( 1S)     1.99908
    81    C    6  S      Val( 2S)     0.97158
    82    C    6  S      Ryd( 3S)     0.00067
    83    C    6  S      Ryd( 4S)     0.00002
    84    C    6  px     Val( 2p)     1.19841
    85    C    6  px     Ryd( 3p)     0.00434
    86    C    6  py     Val( 2p)     1.02650
    87    C    6  py     Ryd( 3p)     0.00486
    88    C    6  pz     Val( 2p)     1.15186
    89    C    6  pz     Ryd( 3p)     0.00391
    90    C    6  dxy    Ryd( 3d)     0.00060
    91    C    6  dxz    Ryd( 3d)     0.00044
    92    C    6  dyz    Ryd( 3d)     0.00057
    93    C    6  dx2y2  Ryd( 3d)     0.00061
    94    C    6  dz2    Ryd( 3d)     0.00049
 
    95    C    7  S      Cor( 1S)     1.99910
    96    C    7  S      Val( 2S)     0.96157
    97    C    7  S      Ryd( 3S)     0.00065
    98    C    7  S      Ryd( 4S)     0.00003
    99    C    7  px     Val( 2p)     1.08969
   100    C    7  px     Ryd( 3p)     0.00488
   101    C    7  py     Val( 2p)     1.15841
   102    C    7  py     Ryd( 3p)     0.00484
   103    C    7  pz     Val( 2p)     1.03825
   104    C    7  pz     Ryd( 3p)     0.00396
   105    C    7  dxy    Ryd( 3d)     0.00072
   106    C    7  dxz    Ryd( 3d)     0.00061
   107    C    7  dyz    Ryd( 3d)     0.00054
   108    C    7  dx2y2  Ryd( 3d)     0.00057
   109    C    7  dz2    Ryd( 3d)     0.00046
 
   110    C    8  S      Cor( 1S)     1.99895
   111    C    8  S      Val( 2S)     0.97851
   112    C    8  S      Ryd( 3S)     0.00092
   113    C    8  S      Ryd( 4S)     0.00005
   114    C    8  px     Val( 2p)     1.10565
   115    C    8  px     Ryd( 3p)     0.00507
   116    C    8  py     Val( 2p)     1.14945
   117    C    8  py     Ryd( 3p)     0.00547
   118    C    8  pz     Val( 2p)     0.96764
   119    C    8  pz     Ryd( 3p)     0.00085
   120    C    8  dxy    Ryd( 3d)     0.00081
   121    C    8  dxz    Ryd( 3d)     0.00106
   122    C    8  dyz    Ryd( 3d)     0.00063
   123    C    8  dx2y2  Ryd( 3d)     0.00048
   124    C    8  dz2    Ryd( 3d)     0.00048
 
   125    O    9  S      Cor( 1S)     1.99988
   126    O    9  S      Val( 2S)     1.82787
   127    O    9  S      Ryd( 3S)     0.00137
   128    O    9  S      Ryd( 4S)     0.00002
   129    O    9  px     Val( 2p)     1.75257
   130    O    9  px     Ryd( 3p)     0.00084
   131    O    9  py     Val( 2p)     1.65657
   132    O    9  py     Ryd( 3p)     0.00056
   133    O    9  pz     Val( 2p)     1.62319
   134    O    9  pz     Ryd( 3p)     0.00071
   135    O    9  dxy    Ryd( 3d)     0.00339
   136    O    9  dxz    Ryd( 3d)     0.00381
   137    O    9  dyz    Ryd( 3d)     0.00562
   138    O    9  dx2y2  Ryd( 3d)     0.00330
   139    O    9  dz2    Ryd( 3d)     0.00485
 
   140    O   10  S      Cor( 1S)     1.99988
   141    O   10  S      Val( 2S)     1.82864
   142    O   10  S      Ryd( 3S)     0.00114
   143    O   10  S      Ryd( 4S)     0.00012
   144    O   10  px     Val( 2p)     1.74641
   145    O   10  px     Ryd( 3p)     0.00077
   146    O   10  py     Val( 2p)     1.52860
   147    O   10  py     Ryd( 3p)     0.00081
   148    O   10  pz     Val( 2p)     1.76946
   149    O   10  pz     Ryd( 3p)     0.00051
   150    O   10  dxy    Ryd( 3d)     0.00587
   151    O   10  dxz    Ryd( 3d)     0.00085
   152    O   10  dyz    Ryd( 3d)     0.00535
   153    O   10  dx2y2  Ryd( 3d)     0.00595
   154    O   10  dz2    Ryd( 3d)     0.00209
 
   155    H   11  S      Val( 1S)     0.72506
   156    H   11  S      Ryd( 2S)     0.00055
 
   157    H   12  S      Val( 1S)     0.72571
   158    H   12  S      Ryd( 2S)     0.00049
 
   159    H   13  S      Val( 1S)     0.73116
   160    H   13  S      Ryd( 2S)     0.00058
 
   161    H   14  S      Val( 1S)     0.70026
   162    H   14  S      Ryd( 2S)     0.00094

 WARNING:  1 low occupancy (<1.9990e) core orbital  found on  C    3
           1 low occupancy (<1.9990e) core orbital  found on  N    4
           1 low occupancy (<1.9990e) core orbital  found on  C    8


 Summary of Natural Population Analysis:                  
                                                          
                                       Natural Population 
                Natural  -----------------------------------------------
    Atom  No    Charge         Core      Valence    Rydberg      Total
 -----------------------------------------------------------------------
      F    1   -0.50163      1.99997     7.49155    0.01011     9.50163
      S    2    2.40357      9.99880     3.38908    0.20855    13.59643
      C    3   -0.26199      1.99877     4.22627    0.03695     6.26199
      N    4   -0.14010      1.99884     5.12316    0.01809     7.14010
      C    5    0.01012      1.99913     3.97032    0.02043     5.98988
      C    6   -0.36395      1.99908     4.34835    0.01652     6.36395
      C    7   -0.26426      1.99910     4.24792    0.01725     6.26426
      C    8   -0.21603      1.99895     4.20125    0.01582     6.21603
      O    9   -0.88455      1.99988     6.86021    0.02446     8.88455
      O   10   -0.89644      1.99988     6.87312    0.02345     8.89644
      H   11    0.27439      0.00000     0.72506    0.00055     0.72561
      H   12    0.27380      0.00000     0.72571    0.00049     0.72620
      H   13    0.26826      0.00000     0.73116    0.00058     0.73174
      H   14    0.29881      0.00000     0.70026    0.00094     0.70119
 =======================================================================
   * Total *    0.00000     27.99239    53.61341    0.39419    82.00000

                                 Natural Population      
 --------------------------------------------------------
   Core                      27.99239 ( 99.9728% of  28)
   Valence                   53.61341 ( 99.2841% of  54)
   Natural Minimal Basis     81.60581 ( 99.5193% of  82)
   Natural Rydberg Basis      0.39419 (  0.4807% of  82)
 --------------------------------------------------------

    Atom  No          Natural Electron Configuration
 ----------------------------------------------------------------------------
      F    1      [core]2S( 1.93)2p( 5.56)3d( 0.01)
      S    2      [core]3S( 1.03)3p( 2.36)3d( 0.17)4p( 0.03)
      C    3      [core]2S( 0.93)2p( 3.29)3p( 0.03)3d( 0.01)
      N    4      [core]2S( 1.26)2p( 3.87)3p( 0.01)
      C    5      [core]2S( 0.95)2p( 3.02)3p( 0.01)3d( 0.01)
      C    6      [core]2S( 0.97)2p( 3.38)3p( 0.01)
      C    7      [core]2S( 0.96)2p( 3.29)3p( 0.01)
      C    8      [core]2S( 0.98)2p( 3.22)3p( 0.01)
      O    9      [core]2S( 1.83)2p( 5.03)3d( 0.02)
      O   10      [core]2S( 1.83)2p( 5.04)3d( 0.02)
      H   11            1S( 0.73)
      H   12            1S( 0.73)
      H   13            1S( 0.73)
      H   14            1S( 0.70)


 NBO analysis skipped by request.
 1\1\GINC-DELLA-R2C1N2\SP\RAPFD TD-FC\6-31G(d)\C5H4F1N1O2S1\SHIVAANI\28
 -Jan-2024\0\\# TD(NStates=10, Root=1) APFD/6-31G* volume pop=NPA densi
 ty=current Geom=AllCheck Guess=Read\\FCFXLXGZHDHJLB-UHFFFAOYSA-N_conf_
 0\\0,1\F,0,2.6414607533,-0.8578469537,-1.343519948\S,0,2.3789535538,-0
 .2156745515,0.1036976505\C,0,0.5868764336,-0.1405894657,0.0408987508\N
 ,0,-0.0314240857,-1.3102805533,0.039247518\C,0,-1.3622103735,-1.278477
 2149,0.0138853844\C,0,-2.094912265,-0.0894507058,-0.0026653031\C,0,-1.
 4117403008,1.1222654442,0.0016625713\C,0,-0.0179296382,1.1098307865,0.
 0212150315\O,0,2.822582765,-1.1867600399,1.0711498387\O,0,2.9049795687
 ,1.1304736687,0.0538054826\H,0,-1.8618708439,-2.2446240304,0.008599262
 7\H,0,-3.1805506649,-0.1203059782,-0.0183224169\H,0,-1.9517676671,2.06
 51935166,-0.010813109\H,0,0.5775527647,2.0162460773,0.0211592866\\Vers
 ion=ES64L-G16RevA.03\State=1-A\HF=-895.610952\RMSD=6.711e-09\Dipole=-2
 .1542758,-0.0169075,-0.2599179\Quadrupole=1.8438906,2.1668849,-4.01077
 55,0.7350275,-1.262095,0.8976229\PG=C01 [X(C5H4F1N1O2S1)]\\@


 My opinions may have changed, but not the fact that I am right.
                       -- Ashleigh Brilliant
 Job cpu time:       0 days  0 hours  7 minutes 24.2 seconds.
 Elapsed time:       0 days  0 hours  3 minutes 44.7 seconds.
 File lengths (MBytes):  RWF=    269 Int=      0 D2E=      0 Chk=     20 Scr=      1
 Normal termination of Gaussian 16 at Sun Jan 28 15:20:42 2024.
