 Entering Gaussian System, Link 0=g16
 Input=HMZIGHBQOOGZAK-UHFFFAOYSA-N_conf_0.gjf
 Output=HMZIGHBQOOGZAK-UHFFFAOYSA-N_conf_0.log
 Initial command:
 /opt/export/g16/l1.exe "/tmp/Gau-1411975.inp" -scrdir="/tmp/"
 Entering Link 1 = /opt/export/g16/l1.exe PID=   1411976.
  
 Copyright (c) 1988,1990,1992,1993,1995,1998,2003,2009,2016,
            Gaussian, Inc.  All Rights Reserved.
  
 This is part of the Gaussian(R) 16 program.  It is based on
 the Gaussian(R) 09 system (copyright 2009, Gaussian, Inc.),
 the Gaussian(R) 03 system (copyright 2003, Gaussian, Inc.),
 the Gaussian(R) 98 system (copyright 1998, Gaussian, Inc.),
 the Gaussian(R) 94 system (copyright 1995, Gaussian, Inc.),
 the Gaussian 92(TM) system (copyright 1992, Gaussian, Inc.),
 the Gaussian 90(TM) system (copyright 1990, Gaussian, Inc.),
 the Gaussian 88(TM) system (copyright 1988, Gaussian, Inc.),
 the Gaussian 86(TM) system (copyright 1986, Carnegie Mellon
 University), and the Gaussian 82(TM) system (copyright 1983,
 Carnegie Mellon University). Gaussian is a federally registered
 trademark of Gaussian, Inc.
  
 This software contains proprietary and confidential information,
 including trade secrets, belonging to Gaussian, Inc.
  
 This software is provided under written license and may be
 used, copied, transmitted, or stored only in accord with that
 written license.
  
 The following legend is applicable only to US Government
 contracts under FAR:
  
                    RESTRICTED RIGHTS LEGEND
  
 Use, reproduction and disclosure by the US Government is
 subject to restrictions as set forth in subparagraphs (a)
 and (c) of the Commercial Computer Software - Restricted
 Rights clause in FAR 52.227-19.
  
 Gaussian, Inc.
 340 Quinnipiac St., Bldg. 40, Wallingford CT 06492
  
  
 ---------------------------------------------------------------
 Warning -- This program may not be used in any manner that
 competes with the business of Gaussian, Inc. or will provide
 assistance to any competitor of Gaussian, Inc.  The licensee
 of this program is prohibited from giving any competitor of
 Gaussian, Inc. access to this program.  By using this program,
 the user acknowledges that Gaussian, Inc. is engaged in the
 business of creating and licensing software in the field of
 computational chemistry and represents and warrants to the
 licensee that it is not a competitor of Gaussian, Inc. and that
 it will not use this program in any manner prohibited above.
 ---------------------------------------------------------------
  

 Cite this work as:
 Gaussian 16, Revision A.03,
 M. J. Frisch, G. W. Trucks, H. B. Schlegel, G. E. Scuseria, 
 M. A. Robb, J. R. Cheeseman, G. Scalmani, V. Barone, 
 G. A. Petersson, H. Nakatsuji, X. Li, M. Caricato, A. V. Marenich, 
 J. Bloino, B. G. Janesko, R. Gomperts, B. Mennucci, H. P. Hratchian, 
 J. V. Ortiz, A. F. Izmaylov, J. L. Sonnenberg, D. Williams-Young, 
 F. Ding, F. Lipparini, F. Egidi, J. Goings, B. Peng, A. Petrone, 
 T. Henderson, D. Ranasinghe, V. G. Zakrzewski, J. Gao, N. Rega, 
 G. Zheng, W. Liang, M. Hada, M. Ehara, K. Toyota, R. Fukuda, 
 J. Hasegawa, M. Ishida, T. Nakajima, Y. Honda, O. Kitao, H. Nakai, 
 T. Vreven, K. Throssell, J. A. Montgomery, Jr., J. E. Peralta, 
 F. Ogliaro, M. J. Bearpark, J. J. Heyd, E. N. Brothers, K. N. Kudin, 
 V. N. Staroverov, T. A. Keith, R. Kobayashi, J. Normand, 
 K. Raghavachari, A. P. Rendell, J. C. Burant, S. S. Iyengar, 
 J. Tomasi, M. Cossi, J. M. Millam, M. Klene, C. Adamo, R. Cammi, 
 J. W. Ochterski, R. L. Martin, K. Morokuma, O. Farkas, 
 J. B. Foresman, and D. J. Fox, Gaussian, Inc., Wallingford CT, 2016.
 
 ******************************************
 Gaussian 16:  ES64L-G16RevA.03 25-Dec-2016
                28-Jan-2024 
 ******************************************
 %nprocshared=2
 Will use up to    2 processors via shared memory.
 %mem=4GB
 %Chk=HMZIGHBQOOGZAK-UHFFFAOYSA-N_conf_0_0.chk
 --------------------------------
 # opt=CalcFc APFD/6-31G* scf=xqc
 --------------------------------
 1/10=4,18=20,19=15,26=3,38=1/1,3;
 2/9=110,12=2,17=6,18=5,40=1/2;
 3/5=1,6=6,7=1,11=2,25=1,30=1,71=2,74=-44,140=1/1,2,3;
 4//1;
 5/5=2,8=3,13=1,38=5/2,8;
 8/6=4,10=90,11=11/1;
 11/6=1,8=1,9=11,15=111,16=1/1,2,10;
 10/6=1,13=1/2;
 6/7=2,8=2,9=2,10=2,28=1/1;
 7/10=1,18=20,25=1/1,2,3,16;
 1/10=4,18=20,19=15,26=3/3(2);
 2/9=110/2;
 99//99;
 2/9=110/2;
 3/5=1,6=6,7=1,11=2,25=1,30=1,71=1,74=-44/1,2,3;
 4/5=5,16=3,69=1/1;
 5/5=2,8=3,13=1,38=5/2,8;
 7//1,2,3,16;
 1/18=20,19=15,26=3/3(-5);
 2/9=110/2;
 6/7=2,8=2,9=2,10=2,19=2,28=1/1;
 99/9=1/99;
 ----------------------------------
 HMZIGHBQOOGZAK-UHFFFAOYSA-N_conf_0
 ----------------------------------
 Symbolic Z-matrix:
 Charge =  0 Multiplicity = 1
 F                     2.99072   0.89395  -0.73103 
 S                     2.36642  -0.17923   0.27194 
 C                     0.59212  -0.06822   0.09043 
 N                    -0.14522  -0.90038   0.8577 
 C                    -1.47382  -0.78459   0.69049 
 C                    -2.05578   0.10572  -0.18828 
 C                    -1.19353   0.90112  -0.91498 
 N                     0.1455    0.84266  -0.80235 
 O                     2.73918   0.29518   1.59386 
 O                     2.81667  -1.46286  -0.23901 
 H                    -2.08095  -1.44797   1.30126 
 H                    -3.12972   0.17602  -0.30109 
 H                    -1.57158   1.62859  -1.62894 
 

 GradGradGradGradGradGradGradGradGradGradGradGradGradGradGradGradGradGrad
 Berny optimization.
 Initialization pass.
                           ----------------------------
                           !    Initial Parameters    !
                           ! (Angstroms and Degrees)  !
 --------------------------                            --------------------------
 ! Name  Definition              Value          Derivative Info.                !
 --------------------------------------------------------------------------------
 ! R1    R(1,2)                  1.5961         calculate D2E/DX2 analytically  !
 ! R2    R(2,3)                  1.787          calculate D2E/DX2 analytically  !
 ! R3    R(2,9)                  1.4531         calculate D2E/DX2 analytically  !
 ! R4    R(2,10)                 1.4531         calculate D2E/DX2 analytically  !
 ! R5    R(3,4)                  1.3509         calculate D2E/DX2 analytically  !
 ! R6    R(3,8)                  1.3514         calculate D2E/DX2 analytically  !
 ! R7    R(4,5)                  1.3441         calculate D2E/DX2 analytically  !
 ! R8    R(5,6)                  1.3797         calculate D2E/DX2 analytically  !
 ! R9    R(5,11)                 1.0871         calculate D2E/DX2 analytically  !
 ! R10   R(6,7)                  1.3799         calculate D2E/DX2 analytically  !
 ! R11   R(6,12)                 1.0821         calculate D2E/DX2 analytically  !
 ! R12   R(7,8)                  1.345          calculate D2E/DX2 analytically  !
 ! R13   R(7,13)                 1.0871         calculate D2E/DX2 analytically  !
 ! A1    A(1,2,3)              106.4253         calculate D2E/DX2 analytically  !
 ! A2    A(1,2,9)              104.5845         calculate D2E/DX2 analytically  !
 ! A3    A(1,2,10)             104.5849         calculate D2E/DX2 analytically  !
 ! A4    A(3,2,9)              109.076          calculate D2E/DX2 analytically  !
 ! A5    A(3,2,10)             109.0755         calculate D2E/DX2 analytically  !
 ! A6    A(9,2,10)             121.9248         calculate D2E/DX2 analytically  !
 ! A7    A(2,3,4)              116.4861         calculate D2E/DX2 analytically  !
 ! A8    A(2,3,8)              115.9205         calculate D2E/DX2 analytically  !
 ! A9    A(4,3,8)              127.5934         calculate D2E/DX2 analytically  !
 ! A10   A(3,4,5)              114.5699         calculate D2E/DX2 analytically  !
 ! A11   A(4,5,6)              123.4893         calculate D2E/DX2 analytically  !
 ! A12   A(4,5,11)             115.4414         calculate D2E/DX2 analytically  !
 ! A13   A(6,5,11)             121.0693         calculate D2E/DX2 analytically  !
 ! A14   A(5,6,7)              116.3466         calculate D2E/DX2 analytically  !
 ! A15   A(5,6,12)             121.7983         calculate D2E/DX2 analytically  !
 ! A16   A(7,6,12)             121.855          calculate D2E/DX2 analytically  !
 ! A17   A(6,7,8)              123.567          calculate D2E/DX2 analytically  !
 ! A18   A(6,7,13)             120.948          calculate D2E/DX2 analytically  !
 ! A19   A(8,7,13)             115.485          calculate D2E/DX2 analytically  !
 ! A20   A(3,8,7)              114.4337         calculate D2E/DX2 analytically  !
 ! D1    D(1,2,3,4)           -179.991          calculate D2E/DX2 analytically  !
 ! D2    D(1,2,3,8)              0.0067         calculate D2E/DX2 analytically  !
 ! D3    D(9,2,3,4)            -67.6747         calculate D2E/DX2 analytically  !
 ! D4    D(9,2,3,8)            112.323          calculate D2E/DX2 analytically  !
 ! D5    D(10,2,3,4)            67.6925         calculate D2E/DX2 analytically  !
 ! D6    D(10,2,3,8)          -112.3098         calculate D2E/DX2 analytically  !
 ! D7    D(2,3,4,5)            179.9984         calculate D2E/DX2 analytically  !
 ! D8    D(8,3,4,5)              0.0011         calculate D2E/DX2 analytically  !
 ! D9    D(2,3,8,7)           -179.9981         calculate D2E/DX2 analytically  !
 ! D10   D(4,3,8,7)             -0.0007         calculate D2E/DX2 analytically  !
 ! D11   D(3,4,5,6)             -0.0006         calculate D2E/DX2 analytically  !
 ! D12   D(3,4,5,11)           179.9974         calculate D2E/DX2 analytically  !
 ! D13   D(4,5,6,7)             -0.0001         calculate D2E/DX2 analytically  !
 ! D14   D(4,5,6,12)           179.9996         calculate D2E/DX2 analytically  !
 ! D15   D(11,5,6,7)          -179.998          calculate D2E/DX2 analytically  !
 ! D16   D(11,5,6,12)            0.0017         calculate D2E/DX2 analytically  !
 ! D17   D(5,6,7,8)              0.0006         calculate D2E/DX2 analytically  !
 ! D18   D(5,6,7,13)           179.9983         calculate D2E/DX2 analytically  !
 ! D19   D(12,6,7,8)          -179.9992         calculate D2E/DX2 analytically  !
 ! D20   D(12,6,7,13)           -0.0015         calculate D2E/DX2 analytically  !
 ! D21   D(6,7,8,3)             -0.0002         calculate D2E/DX2 analytically  !
 ! D22   D(13,7,8,3)          -179.998          calculate D2E/DX2 analytically  !
 --------------------------------------------------------------------------------
 Trust Radius=3.00D-01 FncErr=1.00D-07 GrdErr=1.00D-06 EigMax=2.50D+02 EigMin=1.00D-04
 Number of steps in this run=     65 maximum allowed number of steps=    100.
 GradGradGradGradGradGradGradGradGradGradGradGradGradGradGradGradGradGrad

                          Input orientation:                          
 ---------------------------------------------------------------------
 Center     Atomic      Atomic             Coordinates (Angstroms)
 Number     Number       Type             X           Y           Z
 ---------------------------------------------------------------------
      1          9           0        2.990718    0.893955   -0.731031
      2         16           0        2.366420   -0.179232    0.271939
      3          6           0        0.592124   -0.068215    0.090425
      4          7           0       -0.145225   -0.900384    0.857702
      5          6           0       -1.473824   -0.784586    0.690485
      6          6           0       -2.055782    0.105719   -0.188276
      7          6           0       -1.193527    0.901119   -0.914978
      8          7           0        0.145500    0.842661   -0.802345
      9          8           0        2.739176    0.295181    1.593861
     10          8           0        2.816668   -1.462859   -0.239007
     11          1           0       -2.080946   -1.447968    1.301258
     12          1           0       -3.129724    0.176017   -0.301092
     13          1           0       -1.571579    1.628592   -1.628940
 ---------------------------------------------------------------------
                    Distance matrix (angstroms):
                    1          2          3          4          5
     1  F    0.000000
     2  S    1.596066   0.000000
     3  C    2.711792   1.787007   0.000000
     4  N    3.946880   2.677972   1.350890   0.000000
     5  C    4.976981   3.910128   2.267466   1.344078   0.000000
     6  C    5.136445   4.455207   2.668209   2.399281   1.379689
     7  C    4.188292   3.905016   2.266935   2.736192   2.344713
     8  N    2.846574   2.670362   1.351372   2.424559   2.738373
     9  O    2.413903   1.453098   2.646168   3.207971   4.441999
    10  O    2.413908   1.453096   2.646158   3.208108   4.442109
    11  H    5.944458   4.737959   3.242706   2.060002   1.087068
    12  H    6.177386   5.537342   3.750345   3.377674   2.155920
    13  H    4.707492   4.731744   3.242990   3.822774   3.348540
                    6          7          8          9         10
     6  C    0.000000
     7  C    1.379942   0.000000
     8  N    2.401210   1.345027   0.000000
     9  O    5.118939   4.703996   3.573331   0.000000
    10  O    5.118964   4.703934   3.573221   2.540889   0.000000
    11  H    2.152508   3.349243   3.824813   5.133982   5.134128
    12  H    1.082137   2.156731   3.379758   6.168390   6.168416
    13  H    2.151536   1.087144   2.061385   5.545001   5.544880
                   11         12         13
    11  H    0.000000
    12  H    2.510934   0.000000
    13  H    4.279105   2.510174   0.000000
 Stoichiometry    C4H3FN2O2S
 Framework group  C1[X(C4H3FN2O2S)]
 Deg. of freedom    33
 Full point group                 C1      NOp   1
 Largest Abelian subgroup         C1      NOp   1
 Largest concise Abelian subgroup C1      NOp   1
                         Standard orientation:                         
 ---------------------------------------------------------------------
 Center     Atomic      Atomic             Coordinates (Angstroms)
 Number     Number       Type             X           Y           Z
 ---------------------------------------------------------------------
      1          9           0       -1.952455    1.375556   -0.000197
      2         16           0       -1.433002   -0.133614    0.000016
      3          6           0        0.352210   -0.053545    0.000033
      4          7           0        1.008251   -1.234440    0.000013
      5          6           0        2.348215   -1.129354   -0.000006
      6          6           0        3.017209    0.077289   -0.000018
      7          6           0        2.232662    1.212510   -0.000012
      8          7           0        0.887875    1.187129    0.000016
      9          8           0       -1.884046   -0.676011   -1.270361
     10          8           0       -1.884071   -0.675671    1.270528
     11          1           0        2.890526   -2.071488    0.000023
     12          1           0        4.098060    0.130023   -0.000027
     13          1           0        2.681831    2.202525    0.000008
 ---------------------------------------------------------------------
 Rotational constants (GHZ):           2.7157894           0.8464458           0.7433310
 Standard basis: 6-31G(d) (6D, 7F)
 There are   160 symmetry adapted cartesian basis functions of A   symmetry.
 There are   160 symmetry adapted basis functions of A   symmetry.
   160 basis functions,   316 primitive gaussians,   160 cartesian basis functions
    41 alpha electrons       41 beta electrons
       nuclear repulsion energy       642.2443003739 Hartrees.
 NAtoms=   13 NActive=   13 NUniq=   13 SFac= 1.00D+00 NAtFMM=   60 NAOKFM=F Big=F
 Integral buffers will be    131072 words long.
 Raffenetti 2 integral format.
 Two-electron integral symmetry is turned on.
 R6APFD:  NTU= -4 IXU= 1 FactS= 1.050
 Nuclear repulsion after empirical dispersion term =      642.2337168543 Hartrees.
 One-electron integrals computed using PRISM.
 NBasis=   160 RedAO= T EigKep=  1.39D-03  NBF=   160
 NBsUse=   160 1.00D-06 EigRej= -1.00D+00 NBFU=   160
 ExpMin= 1.17D-01 ExpMax= 2.19D+04 ExpMxC= 3.30D+03 IAcc=3 IRadAn=         5 AccDes= 0.00D+00
 Harris functional with IExCor= 3731 and IRadAn=       5 diagonalized for initial guess.
 HarFok:  IExCor= 3731 AccDes= 0.00D+00 IRadAn=         5 IDoV= 1 UseB2=F ITyADJ=14
 ICtDFT=  3500011 ScaDFX=  1.000000  1.000000  1.000000  1.000000
 FoFCou: FMM=F IPFlag=           0 FMFlag=      100000 FMFlg1=           0
         NFxFlg=           0 DoJE=T BraDBF=F KetDBF=T FulRan=T
         wScrn=  0.000000 ICntrl=       500 IOpCl=  0 I1Cent=   200000004 NGrid=           0
         NMat0=    1 NMatS0=      1 NMatT0=    0 NMatD0=    1 NMtDS0=    0 NMtDT0=    0
 Petite list used in FoFCou.
 Keep R1 ints in memory in canonical form, NReq=85041203.
 Requested convergence on RMS density matrix=1.00D-08 within  32 cycles.
 Requested convergence on MAX density matrix=1.00D-06.
 Requested convergence on             energy=1.00D-06.
 No special actions if energy rises.
 Integral accuracy reduced to 1.0D-05 until final iterations.
 Initial convergence to 1.0D-05 achieved.  Increase integral accuracy.
 SCF Done:  E(RAPFD) =  -911.624192617     A.U. after   15 cycles
            NFock= 15  Conv=0.71D-08     -V/T= 2.0064
 QCSCF skips out because SCF is already converged.
 DoSCS=F DFT=T ScalE2(SS,OS)=  1.000000  1.000000
 Range of M.O.s used for correlation:     1   160
 NBasis=   160 NAE=    41 NBE=    41 NFC=     0 NFV=     0
 NROrb=    160 NOA=    41 NOB=    41 NVA=   119 NVB=   119

 **** Warning!!: The largest alpha MO coefficient is  0.10041490D+02

 R6APFD:  NTU= -4 IXU= 1 FactS= 1.050
 Symmetrizing basis deriv contribution to polar:
 IMax=3 JMax=2 DiffMx= 0.00D+00
 G2DrvN: will do    14 centers at a time, making    1 passes.
 Calling FoFCou, ICntrl=  3107 FMM=F I1Cent=   0 AccDes= 0.00D+00.
 End of G2Drv F.D. properties file   721 does not exist.
 End of G2Drv F.D. properties file   722 does not exist.
 End of G2Drv F.D. properties file   788 does not exist.
          IDoAtm=1111111111111
          Differentiating once with respect to nuclear coordinates.
 Keep R1 ints in memory in canonical form, NReq=85046729.
          There are    42 degrees of freedom in the 1st order CPHF.  IDoFFX=6 NUNeed=     0.
     36 vectors produced by pass  0 Test12= 1.16D-14 2.38D-09 XBig12= 3.15D-01 1.91D-01.
 AX will form    36 AO Fock derivatives at one time.
     36 vectors produced by pass  1 Test12= 1.16D-14 2.38D-09 XBig12= 3.91D-02 5.30D-02.
     36 vectors produced by pass  2 Test12= 1.16D-14 2.38D-09 XBig12= 7.05D-04 6.76D-03.
     36 vectors produced by pass  3 Test12= 1.16D-14 2.38D-09 XBig12= 6.26D-06 5.06D-04.
     36 vectors produced by pass  4 Test12= 1.16D-14 2.38D-09 XBig12= 3.99D-08 5.15D-05.
     36 vectors produced by pass  5 Test12= 1.16D-14 2.38D-09 XBig12= 8.35D-11 2.00D-06.
     19 vectors produced by pass  6 Test12= 1.16D-14 2.38D-09 XBig12= 1.12D-13 6.38D-08.
      2 vectors produced by pass  7 Test12= 1.16D-14 2.38D-09 XBig12= 1.76D-16 2.68D-09.
 InvSVY:  IOpt=1 It=  1 EMax= 1.55D-15
 Solved reduced A of dimension   237 with    36 vectors.
 End of Minotr F.D. properties file   721 does not exist.
 End of Minotr F.D. properties file   722 does not exist.
 End of Minotr F.D. properties file   788 does not exist.

 **********************************************************************

            Population analysis using the SCF density.

 **********************************************************************

 Orbital symmetries:
       Occupied  (A) (A) (A) (A) (A) (A) (A) (A) (A) (A) (A) (A)
                 (A) (A) (A) (A) (A) (A) (A) (A) (A) (A) (A) (A)
                 (A) (A) (A) (A) (A) (A) (A) (A) (A) (A) (A) (A)
                 (A) (A) (A) (A) (A)
       Virtual   (A) (A) (A) (A) (A) (A) (A) (A) (A) (A) (A) (A)
                 (A) (A) (A) (A) (A) (A) (A) (A) (A) (A) (A) (A)
                 (A) (A) (A) (A) (A) (A) (A) (A) (A) (A) (A) (A)
                 (A) (A) (A) (A) (A) (A) (A) (A) (A) (A) (A) (A)
                 (A) (A) (A) (A) (A) (A) (A) (A) (A) (A) (A) (A)
                 (A) (A) (A) (A) (A) (A) (A) (A) (A) (A) (A) (A)
                 (A) (A) (A) (A) (A) (A) (A) (A) (A) (A) (A) (A)
                 (A) (A) (A) (A) (A) (A) (A) (A) (A) (A) (A) (A)
                 (A) (A) (A) (A) (A) (A) (A) (A) (A) (A) (A) (A)
                 (A) (A) (A) (A) (A) (A) (A) (A) (A) (A) (A)
 The electronic state is 1-A.
 Alpha  occ. eigenvalues --  -89.24180 -24.79545 -19.21614 -19.21613 -14.43291
 Alpha  occ. eigenvalues --  -14.43104 -10.35654 -10.31046 -10.30923 -10.27515
 Alpha  occ. eigenvalues --   -8.22019  -6.16970  -6.16574  -6.16547  -1.28610
 Alpha  occ. eigenvalues --   -1.13364  -1.05337  -1.05098  -0.95544  -0.86598
 Alpha  occ. eigenvalues --   -0.76098  -0.71983  -0.67401  -0.61194  -0.57510
 Alpha  occ. eigenvalues --   -0.55363  -0.53104  -0.51861  -0.49153  -0.48344
 Alpha  occ. eigenvalues --   -0.46752  -0.45306  -0.45086  -0.39284  -0.38185
 Alpha  occ. eigenvalues --   -0.36890  -0.36491  -0.34148  -0.33490  -0.32475
 Alpha  occ. eigenvalues --   -0.30755
 Alpha virt. eigenvalues --   -0.08455  -0.08104  -0.00032   0.05637   0.07868
 Alpha virt. eigenvalues --    0.08220   0.10889   0.13509   0.14992   0.16664
 Alpha virt. eigenvalues --    0.20423   0.21586   0.27064   0.28856   0.31061
 Alpha virt. eigenvalues --    0.33858   0.37102   0.40066   0.40472   0.42675
 Alpha virt. eigenvalues --    0.48575   0.51104   0.55414   0.56362   0.56710
 Alpha virt. eigenvalues --    0.57721   0.59114   0.59853   0.62692   0.63486
 Alpha virt. eigenvalues --    0.69727   0.75728   0.76200   0.78941   0.80231
 Alpha virt. eigenvalues --    0.80512   0.81849   0.81988   0.83440   0.86134
 Alpha virt. eigenvalues --    0.87258   0.88193   0.88217   0.93776   0.95047
 Alpha virt. eigenvalues --    0.97921   1.02581   1.02700   1.04974   1.06446
 Alpha virt. eigenvalues --    1.10833   1.13654   1.13998   1.16035   1.18655
 Alpha virt. eigenvalues --    1.21846   1.27964   1.31121   1.31450   1.36772
 Alpha virt. eigenvalues --    1.39243   1.40946   1.42753   1.46453   1.48160
 Alpha virt. eigenvalues --    1.51175   1.57829   1.58172   1.60976   1.67564
 Alpha virt. eigenvalues --    1.75183   1.76636   1.77733   1.78236   1.78810
 Alpha virt. eigenvalues --    1.81268   1.82021   1.83904   1.86079   1.86991
 Alpha virt. eigenvalues --    1.88294   1.89608   1.96495   1.96768   2.09363
 Alpha virt. eigenvalues --    2.10934   2.11933   2.13017   2.14289   2.14962
 Alpha virt. eigenvalues --    2.18839   2.20283   2.28016   2.28630   2.30389
 Alpha virt. eigenvalues --    2.36168   2.46454   2.52663   2.57291   2.62812
 Alpha virt. eigenvalues --    2.63122   2.65695   2.66088   2.77305   2.80998
 Alpha virt. eigenvalues --    2.81317   2.86903   3.05118   3.28080   3.78006
 Alpha virt. eigenvalues --    3.83391   3.92974   3.94288   4.04623   4.13789
 Alpha virt. eigenvalues --    4.19288   4.25148   4.48116   4.58930
          Condensed to atoms (all electrons):
               1          2          3          4          5          6
     1  F    9.154544   0.215414  -0.025416   0.000485  -0.000014  -0.000004
     2  S    0.215414  13.463038   0.169643  -0.018271   0.000204   0.000960
     3  C   -0.025416   0.169643   5.262358   0.358077  -0.058584  -0.048022
     4  N    0.000485  -0.018271   0.358077   6.741534   0.464908  -0.028234
     5  C   -0.000014   0.000204  -0.058584   0.464908   4.786116   0.467316
     6  C   -0.000004   0.000960  -0.048022  -0.028234   0.467316   5.109028
     7  C    0.000172  -0.000583  -0.052885  -0.032072  -0.031774   0.467729
     8  N    0.002101  -0.020443   0.323526  -0.051976  -0.038073  -0.022473
     9  O   -0.037038   0.460832  -0.048931  -0.000927  -0.000108   0.000014
    10  O   -0.037037   0.460835  -0.048930  -0.000928  -0.000108   0.000014
    11  H    0.000000  -0.000188   0.006730  -0.051180   0.389879  -0.062662
    12  H   -0.000000  -0.000009   0.000359   0.003292  -0.028748   0.358255
    13  H    0.000005  -0.000139   0.006840  -0.000240   0.003733  -0.062533
               7          8          9         10         11         12
     1  F    0.000172   0.002101  -0.037038  -0.037037   0.000000  -0.000000
     2  S   -0.000583  -0.020443   0.460832   0.460835  -0.000188  -0.000009
     3  C   -0.052885   0.323526  -0.048931  -0.048930   0.006730   0.000359
     4  N   -0.032072  -0.051976  -0.000927  -0.000928  -0.051180   0.003292
     5  C   -0.031774  -0.038073  -0.000108  -0.000108   0.389879  -0.028748
     6  C    0.467729  -0.022473   0.000014   0.000014  -0.062662   0.358255
     7  C    4.798742   0.440180  -0.000142  -0.000142   0.003781  -0.028112
     8  N    0.440180   6.802744   0.000557   0.000557  -0.000287   0.003284
     9  O   -0.000142   0.000557   8.134202  -0.041512   0.000001  -0.000000
    10  O   -0.000142   0.000557  -0.041512   8.134202   0.000001  -0.000000
    11  H    0.003781  -0.000287   0.000001   0.000001   0.499212  -0.001587
    12  H   -0.028112   0.003284  -0.000000  -0.000000  -0.001587   0.480737
    13  H    0.390005  -0.051580   0.000000   0.000000  -0.000137  -0.001653
              13
     1  F    0.000005
     2  S   -0.000139
     3  C    0.006840
     4  N   -0.000240
     5  C    0.003733
     6  C   -0.062533
     7  C    0.390005
     8  N   -0.051580
     9  O    0.000000
    10  O    0.000000
    11  H   -0.000137
    12  H   -0.001653
    13  H    0.501530
 Mulliken charges:
               1
     1  F   -0.273211
     2  S    1.268706
     3  C    0.155234
     4  N   -0.384467
     5  C    0.045251
     6  C   -0.179387
     7  C    0.045100
     8  N   -0.388116
     9  O   -0.466948
    10  O   -0.466950
    11  H    0.216437
    12  H    0.214181
    13  H    0.214169
 Sum of Mulliken charges =  -0.00000
 Mulliken charges with hydrogens summed into heavy atoms:
               1
     1  F   -0.273211
     2  S    1.268706
     3  C    0.155234
     4  N   -0.384467
     5  C    0.261689
     6  C    0.034794
     7  C    0.259269
     8  N   -0.388116
     9  O   -0.466948
    10  O   -0.466950
 APT charges:
               1
     1  F   -0.036770
     2  S    0.195260
     3  C   -0.018288
     4  N   -0.490592
     5  C   -0.407932
     6  C   -0.423311
     7  C   -0.426487
     8  N   -0.515115
     9  O   -0.090937
    10  O   -0.090937
    11  H    0.725644
    12  H    0.877711
    13  H    0.701753
 Sum of APT charges =  -0.00000
 APT charges with hydrogens summed into heavy atoms:
               1
     1  F   -0.036770
     2  S    0.195260
     3  C   -0.018288
     4  N   -0.490592
     5  C    0.317712
     6  C    0.454401
     7  C    0.275266
     8  N   -0.515115
     9  O   -0.090937
    10  O   -0.090937
 Electronic spatial extent (au):  <R**2>=           1504.3242
 Charge=             -0.0000 electrons
 Dipole moment (field-independent basis, Debye):
    X=              7.0875    Y=              1.1858    Z=             -0.0001  Tot=              7.1860
 Quadrupole moment (field-independent basis, Debye-Ang):
   XX=            -50.5354   YY=            -62.3049   ZZ=            -66.2910
   XY=             -2.0502   XZ=              0.0003   YZ=             -0.0005
 Traceless Quadrupole moment (field-independent basis, Debye-Ang):
   XX=              9.1750   YY=             -2.5945   ZZ=             -6.5806
   XY=             -2.0502   XZ=              0.0003   YZ=             -0.0005
 Octapole moment (field-independent basis, Debye-Ang**2):
  XXX=             37.1459  YYY=              7.1715  ZZZ=             -0.0023  XYY=              5.9934
  XXY=              6.8099  XXZ=             -0.0011  XZZ=             -3.4686  YZZ=              5.5133
  YYZ=              0.0008  XYZ=              0.0007
 Hexadecapole moment (field-independent basis, Debye-Ang**3):
 XXXX=          -1141.3121 YYYY=           -345.9748 ZZZZ=           -167.4354 XXXY=            -23.5612
 XXXZ=              0.0034 YYYX=             -9.9635 YYYZ=             -0.0020 ZZZX=              0.0045
 ZZZY=             -0.0014 XXYY=           -243.0330 XXZZ=           -273.1866 YYZZ=            -89.2496
 XXYZ=             -0.0020 YYXZ=             -0.0006 ZZXY=            -10.5121
 N-N= 6.422337168543D+02 E-N=-3.432481293522D+03  KE= 9.058511157939D+02
  Exact polarizability:   0.000   0.000   0.000   0.000   0.000   0.000
 Approx polarizability: 143.409   2.886 130.371  -0.002   0.002  75.410
 R6APFD:  NTU= -4 IXU= 1 FactS= 1.050
 Calling FoFJK, ICntrl=    100147 FMM=F ISym2X=0 I1Cent= 0 IOpClX= 0 NMat=1 NMatS=1 NMatT=0.
 ***** Axes restored to original set *****
 -------------------------------------------------------------------
 Center     Atomic                   Forces (Hartrees/Bohr)
 Number     Number              X              Y              Z
 -------------------------------------------------------------------
      1        9          -0.015636259    0.003030203   -0.003568295
      2       16           0.036027930   -0.021232517    0.021890720
      3        6          -0.041592354    0.013701179   -0.014890109
      4        7           0.014833752    0.015278419   -0.014033876
      5        6           0.012167526   -0.009960139    0.010064948
      6        6          -0.001306891    0.000923383   -0.000939610
      7        6           0.012404548    0.008382310   -0.007523382
      8        7           0.001744063   -0.016297756    0.015708604
      9        8          -0.008756913   -0.003766160   -0.010470312
     10        8          -0.009358239    0.009919651    0.003798930
     11        1           0.000673310   -0.000953507    0.000945782
     12        1          -0.001922338    0.000139802   -0.000214998
     13        1           0.000721864    0.000835134   -0.000768402
 -------------------------------------------------------------------
 Cartesian Forces:  Max     0.041592354 RMS     0.013244360
 FormGI is forming the generalized inverse of G from B-inverse, IUseBI=4.

 GradGradGradGradGradGradGradGradGradGradGradGradGradGradGradGradGradGrad
 Berny optimization.
 Internal  Forces:  Max     0.036141646 RMS     0.009247899
 Search for a local minimum.
 Step number   1 out of a maximum of   65
 All quantities printed in internal units (Hartrees-Bohrs-Radians)
 Mixed Optimization -- RFO/linear search
 Second derivative matrix not updated -- analytic derivatives used.
 ITU=  0
     Eigenvalues ---   -0.00088   0.01423   0.02226   0.02296   0.02604
     Eigenvalues ---    0.03014   0.03676   0.04041   0.10998   0.12772
     Eigenvalues ---    0.13815   0.14107   0.14880   0.15859   0.17142
     Eigenvalues ---    0.18784   0.19658   0.19908   0.21137   0.25494
     Eigenvalues ---    0.27425   0.30248   0.36390   0.36633   0.37233
     Eigenvalues ---    0.37895   0.43144   0.44457   0.51758   0.51821
     Eigenvalues ---    0.56948   0.65601   0.65716
 RFO step:  Lambda=-1.42505520D-02 EMin=-8.78786366D-04
 Linear search not attempted -- first point.
 Iteration  1 RMS(Cart)=  0.11712385 RMS(Int)=  0.03629585
 Iteration  2 RMS(Cart)=  0.05792454 RMS(Int)=  0.00196682
 Iteration  3 RMS(Cart)=  0.00202706 RMS(Int)=  0.00048319
 Iteration  4 RMS(Cart)=  0.00000299 RMS(Int)=  0.00048319
 Iteration  5 RMS(Cart)=  0.00000000 RMS(Int)=  0.00048319
 Variable       Old X    -DE/DX   Delta X   Delta X   Delta X     New X
                                 (Linear)    (Quad)   (Total)
    R1        3.01613  -0.00184   0.00000  -0.00730  -0.00730   3.00883
    R2        3.37695   0.00419   0.00000   0.04299   0.04299   3.41994
    R3        2.74596  -0.01300   0.00000  -0.02394  -0.02394   2.72202
    R4        2.74595  -0.01300   0.00000  -0.02063  -0.02063   2.72533
    R5        2.55281  -0.02776   0.00000  -0.05529  -0.05510   2.49772
    R6        2.55372  -0.02255   0.00000  -0.06088  -0.06070   2.49302
    R7        2.53994  -0.01214   0.00000  -0.01951  -0.01950   2.52044
    R8        2.60723   0.01023   0.00000   0.02358   0.02341   2.63065
    R9        2.05426   0.00074   0.00000   0.00129   0.00129   2.05555
   R10        2.60771   0.00833   0.00000   0.01996   0.01977   2.62749
   R11        2.04494   0.00194   0.00000   0.00543   0.00543   2.05037
   R12        2.54173  -0.01086   0.00000  -0.01411  -0.01413   2.52760
   R13        2.05441   0.00081   0.00000   0.00124   0.00124   2.05565
    A1        1.85747  -0.03614   0.00000  -0.15221  -0.15323   1.70424
    A2        1.82534   0.01490   0.00000   0.04587   0.04506   1.87041
    A3        1.82535   0.01490   0.00000   0.04493   0.04315   1.86850
    A4        1.90374  -0.00397   0.00000   0.01625   0.01572   1.91946
    A5        1.90373  -0.00397   0.00000   0.00264   0.00186   1.90559
    A6        2.12799   0.00868   0.00000   0.01570   0.01520   2.14319
    A7        2.03307  -0.01760   0.00000  -0.08117  -0.08158   1.95149
    A8        2.02319   0.00139   0.00000   0.04059   0.04014   2.06333
    A9        2.22693   0.01621   0.00000   0.04059   0.04061   2.26754
   A10        1.99962  -0.00044   0.00000   0.00302   0.00335   2.00298
   A11        2.15530  -0.00635   0.00000  -0.02747  -0.02760   2.12770
   A12        2.01483   0.00183   0.00000   0.01512   0.01518   2.03001
   A13        2.11306   0.00452   0.00000   0.01235   0.01241   2.12547
   A14        2.03063  -0.00143   0.00000   0.00864   0.00829   2.03893
   A15        2.12578   0.00074   0.00000  -0.00389  -0.00372   2.12206
   A16        2.12677   0.00070   0.00000  -0.00474  -0.00457   2.12220
   A17        2.15665  -0.00796   0.00000  -0.02304  -0.02322   2.13343
   A18        2.11094   0.00508   0.00000   0.01226   0.01235   2.12329
   A19        2.01559   0.00288   0.00000   0.01078   0.01088   2.02647
   A20        1.99724  -0.00002   0.00000  -0.00174  -0.00149   1.99575
    D1       -3.14143  -0.00000   0.00000   0.28163   0.28251  -2.85893
    D2        0.00012   0.00000   0.00000   0.32195   0.32196   0.32208
    D3       -1.18115  -0.00252   0.00000   0.26674   0.26736  -0.91379
    D4        1.96041  -0.00252   0.00000   0.30705   0.30681   2.26722
    D5        1.18146   0.00252   0.00000   0.30388   0.30368   1.48513
    D6       -1.96018   0.00252   0.00000   0.34420   0.34313  -1.61704
    D7        3.14157   0.00000   0.00000   0.04989   0.04933  -3.09229
    D8        0.00002  -0.00000   0.00000   0.00413   0.00399   0.00401
    D9       -3.14156  -0.00000   0.00000  -0.04161  -0.04319   3.09843
   D10       -0.00001   0.00000   0.00000   0.00392   0.00457   0.00456
   D11       -0.00001   0.00000   0.00000  -0.00971  -0.00981  -0.00982
   D12        3.14155   0.00000   0.00000  -0.00535  -0.00535   3.13620
   D13       -0.00000   0.00000   0.00000   0.00697   0.00711   0.00711
   D14        3.14159   0.00000   0.00000   0.00619   0.00626  -3.13534
   D15       -3.14156  -0.00000   0.00000   0.00237   0.00241  -3.13915
   D16        0.00003  -0.00000   0.00000   0.00159   0.00156   0.00159
   D17        0.00001  -0.00000   0.00000   0.00212   0.00217   0.00217
   D18        3.14156   0.00000   0.00000   0.00062   0.00048  -3.14114
   D19       -3.14158  -0.00000   0.00000   0.00290   0.00302  -3.13856
   D20       -0.00003   0.00000   0.00000   0.00140   0.00133   0.00130
   D21       -0.00000   0.00000   0.00000  -0.00706  -0.00746  -0.00746
   D22       -3.14156  -0.00000   0.00000  -0.00563  -0.00586   3.13577
         Item               Value     Threshold  Converged?
 Maximum Force            0.036142     0.000450     NO 
 RMS     Force            0.009248     0.000300     NO 
 Maximum Displacement     0.633036     0.001800     NO 
 RMS     Displacement     0.168378     0.001200     NO 
 Predicted change in Energy=-7.744599D-03
 GradGradGradGradGradGradGradGradGradGradGradGradGradGradGradGradGradGrad

                          Input orientation:                          
 ---------------------------------------------------------------------
 Center     Atomic      Atomic             Coordinates (Angstroms)
 Number     Number       Type             X           Y           Z
 ---------------------------------------------------------------------
      1          9           0        2.824024    1.076615   -0.499982
      2         16           0        2.362479   -0.228652    0.286385
      3          6           0        0.577534   -0.019820    0.072910
      4          7           0       -0.109187   -0.776093    0.911628
      5          6           0       -1.433351   -0.712564    0.765091
      6          6           0       -2.029288    0.101819   -0.193826
      7          6           0       -1.177136    0.844564   -1.003391
      8          7           0        0.153517    0.787762   -0.880214
      9          8           0        2.718117   -0.039807    1.669388
     10          8           0        2.802253   -1.364982   -0.485132
     11          1           0       -2.023211   -1.329395    1.439471
     12          1           0       -3.107367    0.153808   -0.304678
     13          1           0       -1.558382    1.506745   -1.777651
 ---------------------------------------------------------------------
                    Distance matrix (angstroms):
                    1          2          3          4          5
     1  F    0.000000
     2  S    1.592205   0.000000
     3  C    2.564584   1.809755   0.000000
     4  N    3.745516   2.607634   1.321734   0.000000
     5  C    4.788195   3.856379   2.236664   1.333761   0.000000
     6  C    4.959697   4.430285   2.623254   2.383180   1.392078
     7  C    4.039375   3.917166   2.232588   2.726599   2.370194
     8  N    2.712861   2.696954   1.319251   2.392771   2.734256
     9  O    2.442085   1.440430   2.670438   3.018272   4.301749
    10  O    2.441739   1.442181   2.658994   3.282409   4.464196
    11  H    5.748569   4.666425   3.216574   2.061128   1.087752
    12  H    6.005923   5.514965   3.708262   3.366482   2.167334
    13  H    4.585077   4.758676   3.212026   3.813625   3.377351
                    6          7          8          9         10
     6  C    0.000000
     7  C    1.390406   0.000000
     8  N    2.388783   1.337549   0.000000
     9  O    5.101909   4.806127   3.709786   0.000000
    10  O    5.057682   4.581072   3.436015   2.530835   0.000000
    11  H    2.171651   3.377797   3.821183   4.918953   5.195235
    12  H    1.085009   2.165902   3.371424   6.153917   6.104334
    13  H    2.168887   1.087801   2.062263   5.706343   5.378899
                   11         12         13
    11  H    0.000000
    12  H    2.533247   0.000000
    13  H    4.313888   2.529711   0.000000
 Stoichiometry    C4H3FN2O2S
 Framework group  C1[X(C4H3FN2O2S)]
 Deg. of freedom    33
 Full point group                 C1      NOp   1
 Largest Abelian subgroup         C1      NOp   1
 Largest concise Abelian subgroup C1      NOp   1
                         Standard orientation:                         
 ---------------------------------------------------------------------
 Center     Atomic      Atomic             Coordinates (Angstroms)
 Number     Number       Type             X           Y           Z
 ---------------------------------------------------------------------
      1          9           0       -1.770910    1.362564   -0.416090
      2         16           0       -1.447823   -0.128245    0.040220
      3          6           0        0.357265   -0.011855   -0.017424
      4          7           0        0.926650   -1.204656   -0.014288
      5          6           0        2.260170   -1.187082    0.004039
      6          6           0        2.980357    0.004222    0.006949
      7          6           0        2.243108    1.183045   -0.001390
      8          7           0        0.905592    1.188018   -0.009289
      9          8           0       -1.918077   -1.003442   -1.002723
     10          8           0       -1.871113   -0.251483    1.413364
     11          1           0        2.755052   -2.155704    0.012291
     12          1           0        4.065296    0.012380    0.016116
     13          1           0        2.725443    2.158064   -0.000252
 ---------------------------------------------------------------------
 Rotational constants (GHZ):           2.6962171           0.8756180           0.7635826
 Standard basis: 6-31G(d) (6D, 7F)
 There are   160 symmetry adapted cartesian basis functions of A   symmetry.
 There are   160 symmetry adapted basis functions of A   symmetry.
   160 basis functions,   316 primitive gaussians,   160 cartesian basis functions
    41 alpha electrons       41 beta electrons
       nuclear repulsion energy       647.3122286742 Hartrees.
 NAtoms=   13 NActive=   13 NUniq=   13 SFac= 1.00D+00 NAtFMM=   60 NAOKFM=F Big=F
 Integral buffers will be    131072 words long.
 Raffenetti 2 integral format.
 Two-electron integral symmetry is turned on.
 R6APFD:  NTU= -4 IXU= 1 FactS= 1.050
 Nuclear repulsion after empirical dispersion term =      647.3015760448 Hartrees.
 One-electron integrals computed using PRISM.
 NBasis=   160 RedAO= T EigKep=  1.37D-03  NBF=   160
 NBsUse=   160 1.00D-06 EigRej= -1.00D+00 NBFU=   160
 Initial guess from the checkpoint file:  "HMZIGHBQOOGZAK-UHFFFAOYSA-N_conf_0_0.chk"
 B after Tr=    -0.000000   -0.000000   -0.000000
         Rot=    0.996796    0.079019   -0.000353    0.012367 Ang=   9.18 deg.
 ExpMin= 1.17D-01 ExpMax= 2.19D+04 ExpMxC= 3.30D+03 IAcc=2 IRadAn=         4 AccDes= 0.00D+00
 Harris functional with IExCor= 3731 and IRadAn=       4 diagonalized for initial guess.
 HarFok:  IExCor= 3731 AccDes= 0.00D+00 IRadAn=         4 IDoV= 1 UseB2=F ITyADJ=14
 ICtDFT=  3500011 ScaDFX=  1.000000  1.000000  1.000000  1.000000
 FoFCou: FMM=F IPFlag=           0 FMFlag=      100000 FMFlg1=           0
         NFxFlg=           0 DoJE=T BraDBF=F KetDBF=T FulRan=T
         wScrn=  0.000000 ICntrl=       500 IOpCl=  0 I1Cent=   200000004 NGrid=           0
         NMat0=    1 NMatS0=      1 NMatT0=    0 NMatD0=    1 NMtDS0=    0 NMtDT0=    0
 Petite list used in FoFCou.
 Keep R1 ints in memory in canonical form, NReq=85041203.
 Requested convergence on RMS density matrix=1.00D-08 within  32 cycles.
 Requested convergence on MAX density matrix=1.00D-06.
 Requested convergence on             energy=1.00D-06.
 No special actions if energy rises.
 Integral accuracy reduced to 1.0D-05 until final iterations.
 Initial convergence to 1.0D-05 achieved.  Increase integral accuracy.
 SCF Done:  E(RAPFD) =  -911.631100399     A.U. after   15 cycles
            NFock= 15  Conv=0.38D-08     -V/T= 2.0061
 QCSCF skips out because SCF is already converged.
 R6APFD:  NTU= -4 IXU= 1 FactS= 1.050
 Calling FoFJK, ICntrl=      2127 FMM=F ISym2X=0 I1Cent= 0 IOpClX= 0 NMat=1 NMatS=1 NMatT=0.
 ***** Axes restored to original set *****
 -------------------------------------------------------------------
 Center     Atomic                   Forces (Hartrees/Bohr)
 Number     Number              X              Y              Z
 -------------------------------------------------------------------
      1        9           0.002856535    0.002422117   -0.001025948
      2       16          -0.001211620   -0.000746039   -0.000356594
      3        6           0.000048722   -0.000898901    0.001692920
      4        7          -0.001950438   -0.001781248    0.001079705
      5        6          -0.000520814   -0.000051630    0.000801565
      6        6          -0.000401571   -0.000091725    0.000155577
      7        6           0.000693945    0.000848695   -0.000732775
      8        7          -0.000751140    0.000425049   -0.001367409
      9        8           0.000369701    0.000389539    0.000369090
     10        8           0.000968765   -0.000475382   -0.000506388
     11        1          -0.000027561   -0.000054929    0.000031349
     12        1          -0.000103019   -0.000008765   -0.000090636
     13        1           0.000028494    0.000023220   -0.000050455
 -------------------------------------------------------------------
 Cartesian Forces:  Max     0.002856535 RMS     0.000965918

 GradGradGradGradGradGradGradGradGradGradGradGradGradGradGradGradGradGrad
 Berny optimization.
 Using GEDIIS/GDIIS optimizer.
 FormGI is forming the generalized inverse of G from B-inverse, IUseBI=4.
 Internal  Forces:  Max     0.004603742 RMS     0.001151347
 Search for a local minimum.
 Step number   2 out of a maximum of   65
 All quantities printed in internal units (Hartrees-Bohrs-Radians)
 Mixed Optimization -- RFO/linear search
 Update second derivatives using D2CorX and points    1    2
 DE= -6.91D-03 DEPred=-7.74D-03 R= 8.92D-01
 TightC=F SS=  1.41D+00  RLast= 7.84D-01 DXNew= 5.0454D-01 2.3521D+00
 Trust test= 8.92D-01 RLast= 7.84D-01 DXMaxT set to 5.05D-01
 ITU=  1  0
 Use linear search instead of GDIIS.
     Eigenvalues ---   -0.00093   0.01423   0.02225   0.02296   0.02601
     Eigenvalues ---    0.03013   0.03675   0.04041   0.10998   0.12793
     Eigenvalues ---    0.13819   0.14081   0.15186   0.15738   0.17101
     Eigenvalues ---    0.19276   0.19797   0.20360   0.21147   0.25433
     Eigenvalues ---    0.27461   0.30810   0.36394   0.36626   0.37203
     Eigenvalues ---    0.37922   0.43971   0.44382   0.51626   0.51840
     Eigenvalues ---    0.57239   0.65578   0.65718
 RFO step:  Lambda=-1.07171379D-03 EMin=-9.25896990D-04
 Quartic linear search produced a step of -0.06855.
 Iteration  1 RMS(Cart)=  0.10484633 RMS(Int)=  0.06249791
 Iteration  2 RMS(Cart)=  0.10023026 RMS(Int)=  0.00555477
 Iteration  3 RMS(Cart)=  0.00584010 RMS(Int)=  0.00012575
 Iteration  4 RMS(Cart)=  0.00001440 RMS(Int)=  0.00012552
 Iteration  5 RMS(Cart)=  0.00000000 RMS(Int)=  0.00012552
 Variable       Old X    -DE/DX   Delta X   Delta X   Delta X     New X
                                 (Linear)    (Quad)   (Total)
    R1        3.00883   0.00332   0.00050   0.00960   0.01010   3.01893
    R2        3.41994   0.00258  -0.00295   0.01115   0.00820   3.42814
    R3        2.72202   0.00050   0.00164  -0.00203  -0.00039   2.72163
    R4        2.72533   0.00094   0.00141   0.00255   0.00397   2.72930
    R5        2.49772   0.00295   0.00378   0.00130   0.00511   2.50282
    R6        2.49302   0.00156   0.00416   0.00074   0.00494   2.49796
    R7        2.52044   0.00069   0.00134   0.00068   0.00202   2.52246
    R8        2.63065   0.00083  -0.00160   0.00180   0.00016   2.63081
    R9        2.05555   0.00007  -0.00009   0.00013   0.00004   2.05559
   R10        2.62749   0.00098  -0.00136   0.00236   0.00097   2.62846
   R11        2.05037   0.00011  -0.00037   0.00052   0.00015   2.05052
   R12        2.52760  -0.00035   0.00097  -0.00178  -0.00081   2.52679
   R13        2.05565   0.00004  -0.00009   0.00010   0.00002   2.05566
    A1        1.70424   0.00460   0.01050   0.01039   0.02096   1.72520
    A2        1.87041  -0.00190  -0.00309  -0.00374  -0.00682   1.86358
    A3        1.86850  -0.00162  -0.00296  -0.00455  -0.00736   1.86113
    A4        1.91946  -0.00036  -0.00108   0.00341   0.00235   1.92181
    A5        1.90559   0.00101  -0.00013  -0.00503  -0.00510   1.90049
    A6        2.14319  -0.00065  -0.00104   0.00143   0.00042   2.14361
    A7        1.95149   0.00258   0.00559   0.00793   0.01307   1.96456
    A8        2.06333  -0.00172  -0.00275  -0.01016  -0.01333   2.05000
    A9        2.26754  -0.00086  -0.00278   0.00012  -0.00295   2.26459
   A10        2.00298  -0.00014  -0.00023  -0.00099  -0.00112   2.00186
   A11        2.12770   0.00001   0.00189  -0.00028   0.00162   2.12932
   A12        2.03001  -0.00001  -0.00104  -0.00024  -0.00128   2.02873
   A13        2.12547   0.00000  -0.00085   0.00050  -0.00035   2.12512
   A14        2.03893   0.00044  -0.00057   0.00126   0.00066   2.03958
   A15        2.12206  -0.00017   0.00026  -0.00055  -0.00028   2.12178
   A16        2.12220  -0.00027   0.00031  -0.00071  -0.00039   2.12181
   A17        2.13343  -0.00004   0.00159  -0.00235  -0.00075   2.13268
   A18        2.12329   0.00006  -0.00085   0.00120   0.00035   2.12364
   A19        2.02647  -0.00003  -0.00075   0.00114   0.00039   2.02686
   A20        1.99575   0.00059   0.00010   0.00212   0.00232   1.99808
    D1       -2.85893   0.00033  -0.01937   0.38031   0.36084  -2.49809
    D2        0.32208   0.00029  -0.02207   0.43040   0.40831   0.73039
    D3       -0.91379   0.00017  -0.01833   0.38177   0.36342  -0.55037
    D4        2.26722   0.00014  -0.02103   0.43187   0.41089   2.67811
    D5        1.48513  -0.00014  -0.02082   0.38227   0.36147   1.84660
    D6       -1.61704  -0.00017  -0.02352   0.43237   0.40894  -1.20811
    D7       -3.09229  -0.00031  -0.00338   0.05154   0.04848  -3.04381
    D8        0.00401  -0.00028  -0.00027  -0.00628  -0.00655  -0.00254
    D9        3.09843   0.00030   0.00296  -0.04566  -0.04226   3.05617
   D10        0.00456   0.00018  -0.00031   0.01486   0.01444   0.01900
   D11       -0.00982   0.00020   0.00067  -0.00756  -0.00680  -0.01662
   D12        3.13620   0.00007   0.00037  -0.00486  -0.00446   3.13174
   D13        0.00711  -0.00005  -0.00049   0.01110   0.01056   0.01767
   D14       -3.13534  -0.00011  -0.00043   0.00707   0.00659  -3.12875
   D15       -3.13915   0.00009  -0.00016   0.00825   0.00809  -3.13106
   D16        0.00159   0.00002  -0.00011   0.00421   0.00412   0.00571
   D17        0.00217  -0.00006  -0.00015  -0.00181  -0.00200   0.00018
   D18       -3.14114  -0.00005  -0.00003  -0.00445  -0.00447   3.13757
   D19       -3.13856   0.00000  -0.00021   0.00223   0.00197  -3.13659
   D20        0.00130   0.00002  -0.00009  -0.00042  -0.00050   0.00081
   D21       -0.00746   0.00001   0.00051  -0.00975  -0.00914  -0.01660
   D22        3.13577  -0.00000   0.00040  -0.00724  -0.00680   3.12897
         Item               Value     Threshold  Converged?
 Maximum Force            0.004604     0.000450     NO 
 RMS     Force            0.001151     0.000300     NO 
 Maximum Displacement     0.721783     0.001800     NO 
 RMS     Displacement     0.202924     0.001200     NO 
 Predicted change in Energy=-7.624381D-04
 GradGradGradGradGradGradGradGradGradGradGradGradGradGradGradGradGradGrad

                          Input orientation:                          
 ---------------------------------------------------------------------
 Center     Atomic      Atomic             Coordinates (Angstroms)
 Number     Number       Type             X           Y           Z
 ---------------------------------------------------------------------
      1          9           0        2.847530    1.231404   -0.145825
      2         16           0        2.365867   -0.237518    0.257206
      3          6           0        0.575565   -0.001422    0.083960
      4          7           0       -0.115015   -0.659328    1.002869
      5          6           0       -1.439676   -0.611373    0.845570
      6          6           0       -2.033819    0.096249   -0.195766
      7          6           0       -1.180195    0.739287   -1.085982
      8          7           0        0.150022    0.688694   -0.960061
      9          8           0        2.709199   -0.421758    1.643720
     10          8           0        2.823834   -1.123884   -0.787098
     11          1           0       -2.031207   -1.151597    1.581435
     12          1           0       -3.111959    0.140225   -0.310195
     13          1           0       -1.560147    1.311021   -1.929834
 ---------------------------------------------------------------------
                    Distance matrix (angstroms):
                    1          2          3          4          5
     1  F    0.000000
     2  S    1.597550   0.000000
     3  C    2.595089   1.814094   0.000000
     4  N    3.697437   2.624635   1.324437   0.000000
     5  C    4.770621   3.868862   2.239037   1.334829   0.000000
     6  C    5.011850   4.435518   2.626151   2.385253   1.392163
     7  C    4.165170   3.915719   2.236091   2.730207   2.371182
     8  N    2.869506   2.692503   1.321865   2.395934   2.734524
     9  O    2.440195   1.440223   2.676178   2.905738   4.229203
    10  O    2.441141   1.444281   2.659582   3.472265   4.594104
    11  H    5.697736   4.682241   3.218788   2.061277   1.087772
    12  H    6.060792   5.520073   3.711233   3.368248   2.167308
    13  H    4.755696   4.753388   3.215453   3.817254   3.378311
                    6          7          8          9         10
     6  C    0.000000
     7  C    1.390919   0.000000
     8  N    2.388368   1.337121   0.000000
     9  O    5.113537   4.891491   3.816040   0.000000
    10  O    5.043332   4.426396   3.234907   2.532784   0.000000
    11  H    2.171537   3.378576   3.821470   4.796665   5.402050
    12  H    1.085087   2.166202   3.371004   6.165995   6.087614
    13  H    2.169569   1.087810   2.062142   5.830963   5.143335
                   11         12         13
    11  H    0.000000
    12  H    2.532804   0.000000
    13  H    4.314557   2.530240   0.000000
 Stoichiometry    C4H3FN2O2S
 Framework group  C1[X(C4H3FN2O2S)]
 Deg. of freedom    33
 Full point group                 C1      NOp   1
 Largest Abelian subgroup         C1      NOp   1
 Largest concise Abelian subgroup C1      NOp   1
                         Standard orientation:                         
 ---------------------------------------------------------------------
 Center     Atomic      Atomic             Coordinates (Angstroms)
 Number     Number       Type             X           Y           Z
 ---------------------------------------------------------------------
      1          9           0       -1.821218    1.103165   -0.887003
      2         16           0       -1.446128   -0.106682    0.086518
      3          6           0        0.361454   -0.011890   -0.034310
      4          7           0        0.934719   -1.205790   -0.024114
      5          6           0        2.268993   -1.183574    0.007325
      6          6           0        2.987183    0.009037    0.007875
      7          6           0        2.248430    1.187491   -0.004110
      8          7           0        0.911359    1.190015   -0.015486
      9          8           0       -1.922155   -1.310733   -0.544277
     10          8           0       -1.847491    0.292178    1.415339
     11          1           0        2.765765   -2.151107    0.025960
     12          1           0        4.072138    0.018793    0.021674
     13          1           0        2.729353    2.163213   -0.000862
 ---------------------------------------------------------------------
 Rotational constants (GHZ):           2.6939013           0.8688535           0.7596101
 Standard basis: 6-31G(d) (6D, 7F)
 There are   160 symmetry adapted cartesian basis functions of A   symmetry.
 There are   160 symmetry adapted basis functions of A   symmetry.
   160 basis functions,   316 primitive gaussians,   160 cartesian basis functions
    41 alpha electrons       41 beta electrons
       nuclear repulsion energy       645.9678883920 Hartrees.
 NAtoms=   13 NActive=   13 NUniq=   13 SFac= 1.00D+00 NAtFMM=   60 NAOKFM=F Big=F
 Integral buffers will be    131072 words long.
 Raffenetti 2 integral format.
 Two-electron integral symmetry is turned on.
 R6APFD:  NTU= -4 IXU= 1 FactS= 1.050
 Nuclear repulsion after empirical dispersion term =      645.9571983112 Hartrees.
 One-electron integrals computed using PRISM.
 NBasis=   160 RedAO= T EigKep=  1.38D-03  NBF=   160
 NBsUse=   160 1.00D-06 EigRej= -1.00D+00 NBFU=   160
 Initial guess from the checkpoint file:  "HMZIGHBQOOGZAK-UHFFFAOYSA-N_conf_0_0.chk"
 B after Tr=     0.000000    0.000000    0.000000
         Rot=    0.994895    0.100884   -0.001968   -0.001679 Ang=  11.58 deg.
 ExpMin= 1.17D-01 ExpMax= 2.19D+04 ExpMxC= 3.30D+03 IAcc=2 IRadAn=         4 AccDes= 0.00D+00
 Harris functional with IExCor= 3731 and IRadAn=       4 diagonalized for initial guess.
 HarFok:  IExCor= 3731 AccDes= 0.00D+00 IRadAn=         4 IDoV= 1 UseB2=F ITyADJ=14
 ICtDFT=  3500011 ScaDFX=  1.000000  1.000000  1.000000  1.000000
 FoFCou: FMM=F IPFlag=           0 FMFlag=      100000 FMFlg1=           0
         NFxFlg=           0 DoJE=T BraDBF=F KetDBF=T FulRan=T
         wScrn=  0.000000 ICntrl=       500 IOpCl=  0 I1Cent=   200000004 NGrid=           0
         NMat0=    1 NMatS0=      1 NMatT0=    0 NMatD0=    1 NMtDS0=    0 NMtDT0=    0
 Petite list used in FoFCou.
 Keep R1 ints in memory in canonical form, NReq=85041203.
 Requested convergence on RMS density matrix=1.00D-08 within  32 cycles.
 Requested convergence on MAX density matrix=1.00D-06.
 Requested convergence on             energy=1.00D-06.
 No special actions if energy rises.
 Integral accuracy reduced to 1.0D-05 until final iterations.
 Initial convergence to 1.0D-05 achieved.  Increase integral accuracy.
 SCF Done:  E(RAPFD) =  -911.631234062     A.U. after   15 cycles
            NFock= 15  Conv=0.72D-08     -V/T= 2.0062
 QCSCF skips out because SCF is already converged.
 R6APFD:  NTU= -4 IXU= 1 FactS= 1.050
 Calling FoFJK, ICntrl=      2127 FMM=F ISym2X=0 I1Cent= 0 IOpClX= 0 NMat=1 NMatS=1 NMatT=0.
 ***** Axes restored to original set *****
 -------------------------------------------------------------------
 Center     Atomic                   Forces (Hartrees/Bohr)
 Number     Number              X              Y              Z
 -------------------------------------------------------------------
      1        9          -0.001046491    0.001986673   -0.000701937
      2       16           0.003126329   -0.002289796   -0.001257118
      3        6          -0.002418546   -0.003083696    0.001844323
      4        7          -0.000550072    0.000127779   -0.001005766
      5        6          -0.000576290    0.001201901    0.000570641
      6        6          -0.000218025   -0.000710343    0.000601131
      7        6           0.001737155    0.001230019   -0.000621850
      8        7           0.001150510    0.000016377    0.000459834
      9        8          -0.000401699    0.000521799   -0.000599394
     10        8          -0.000766750    0.001159331    0.000908586
     11        1          -0.000048001   -0.000009325    0.000054161
     12        1          -0.000057931   -0.000160064   -0.000219215
     13        1           0.000069810    0.000009343   -0.000033398
 -------------------------------------------------------------------
 Cartesian Forces:  Max     0.003126329 RMS     0.001191100

 GradGradGradGradGradGradGradGradGradGradGradGradGradGradGradGradGradGrad
 Berny optimization.
 Using GEDIIS/GDIIS optimizer.
 FormGI is forming the generalized inverse of G from B-inverse, IUseBI=4.
 Internal  Forces:  Max     0.006043272 RMS     0.001380066
 Search for a local minimum.
 Step number   3 out of a maximum of   65
 All quantities printed in internal units (Hartrees-Bohrs-Radians)
 Mixed Optimization -- RFO/linear search
 Update second derivatives using D2CorX and points    2    3
 DE= -1.34D-04 DEPred=-7.62D-04 R= 1.75D-01
 Trust test= 1.75D-01 RLast= 9.50D-01 DXMaxT set to 5.05D-01
 ITU=  0  1  0
 Use linear search instead of GDIIS.
     Eigenvalues ---    0.00047   0.01432   0.02228   0.02304   0.02763
     Eigenvalues ---    0.03039   0.03679   0.04068   0.11002   0.12851
     Eigenvalues ---    0.13819   0.14533   0.15818   0.17117   0.18215
     Eigenvalues ---    0.19497   0.20843   0.21123   0.23576   0.25762
     Eigenvalues ---    0.27494   0.33314   0.36419   0.36636   0.37753
     Eigenvalues ---    0.38982   0.44789   0.49516   0.51776   0.54023
     Eigenvalues ---    0.62115   0.65580   0.72330
 RFO step:  Lambda=-3.47661898D-04 EMin= 4.73348430D-04
 Quartic linear search produced a step of -0.30843.
 Iteration  1 RMS(Cart)=  0.02214715 RMS(Int)=  0.00025916
 Iteration  2 RMS(Cart)=  0.00040303 RMS(Int)=  0.00007192
 Iteration  3 RMS(Cart)=  0.00000006 RMS(Int)=  0.00007192
 Variable       Old X    -DE/DX   Delta X   Delta X   Delta X     New X
                                 (Linear)    (Quad)   (Total)
    R1        3.01893   0.00169  -0.00312   0.00759   0.00448   3.02341
    R2        3.42814   0.00056  -0.00253   0.00843   0.00590   3.43404
    R3        2.72163  -0.00074   0.00012  -0.00071  -0.00059   2.72103
    R4        2.72930  -0.00161  -0.00122  -0.00019  -0.00141   2.72788
    R5        2.50282  -0.00039  -0.00158  -0.00112  -0.00271   2.50012
    R6        2.49796  -0.00092  -0.00152   0.00335   0.00182   2.49978
    R7        2.52246   0.00062  -0.00062   0.00257   0.00195   2.52441
    R8        2.63081   0.00010  -0.00005  -0.00030  -0.00035   2.63046
    R9        2.05559   0.00007  -0.00001   0.00008   0.00007   2.05566
   R10        2.62846   0.00090  -0.00030   0.00281   0.00251   2.63097
   R11        2.05052   0.00007  -0.00005   0.00029   0.00024   2.05076
   R12        2.52679  -0.00150   0.00025  -0.00338  -0.00313   2.52366
   R13        2.05566   0.00001  -0.00001   0.00011   0.00010   2.05577
    A1        1.72520  -0.00408  -0.00646  -0.00283  -0.00929   1.71591
    A2        1.86358   0.00109   0.00210  -0.00241  -0.00031   1.86328
    A3        1.86113   0.00106   0.00227  -0.00181   0.00047   1.86161
    A4        1.92181   0.00007  -0.00073  -0.00108  -0.00181   1.92000
    A5        1.90049  -0.00003   0.00157   0.00434   0.00590   1.90639
    A6        2.14361   0.00084  -0.00013   0.00231   0.00217   2.14578
    A7        1.96456   0.00549  -0.00403   0.02865   0.02467   1.98923
    A8        2.05000  -0.00604   0.00411  -0.02747  -0.02332   2.02668
    A9        2.26459   0.00064   0.00091  -0.00052   0.00042   2.26501
   A10        2.00186  -0.00066   0.00034  -0.00164  -0.00131   2.00054
   A11        2.12932  -0.00009  -0.00050   0.00110   0.00060   2.12991
   A12        2.02873   0.00006   0.00040  -0.00109  -0.00070   2.02804
   A13        2.12512   0.00004   0.00011   0.00001   0.00012   2.12523
   A14        2.03958   0.00002  -0.00020   0.00061   0.00041   2.04000
   A15        2.12178   0.00007   0.00009  -0.00013  -0.00004   2.12174
   A16        2.12181  -0.00009   0.00012  -0.00049  -0.00038   2.12144
   A17        2.13268  -0.00047   0.00023  -0.00228  -0.00204   2.13063
   A18        2.12364   0.00031  -0.00011   0.00075   0.00064   2.12428
   A19        2.02686   0.00016  -0.00012   0.00153   0.00141   2.02827
   A20        1.99808   0.00056  -0.00072   0.00274   0.00201   2.00009
    D1       -2.49809   0.00043  -0.11129   0.11774   0.00643  -2.49165
    D2        0.73039  -0.00059  -0.12593   0.11057  -0.01536   0.71503
    D3       -0.55037  -0.00020  -0.11209   0.11344   0.00135  -0.54903
    D4        2.67811  -0.00122  -0.12673   0.10627  -0.02045   2.65765
    D5        1.84660   0.00101  -0.11149   0.11964   0.00816   1.85476
    D6       -1.20811  -0.00000  -0.12613   0.11247  -0.01364  -1.22175
    D7       -3.04381  -0.00094  -0.01495  -0.01405  -0.02936  -3.07317
    D8       -0.00254  -0.00014   0.00202  -0.00716  -0.00510  -0.00764
    D9        3.05617   0.00129   0.01304   0.01435   0.02704   3.08321
   D10        0.01900  -0.00011  -0.00445   0.00444   0.00003   0.01902
   D11       -0.01662   0.00039   0.00210   0.00476   0.00677  -0.00985
   D12        3.13174   0.00005   0.00138   0.00145   0.00279   3.13453
   D13        0.01767  -0.00036  -0.00326  -0.00058  -0.00379   0.01388
   D14       -3.12875  -0.00035  -0.00203  -0.00215  -0.00413  -3.13288
   D15       -3.13106  -0.00001  -0.00250   0.00291   0.00040  -3.13066
   D16        0.00571   0.00001  -0.00127   0.00134   0.00006   0.00577
   D17        0.00018   0.00007   0.00062  -0.00239  -0.00172  -0.00155
   D18        3.13757   0.00007   0.00138  -0.00233  -0.00096   3.13661
   D19       -3.13659   0.00006  -0.00061  -0.00082  -0.00139  -3.13797
   D20        0.00081   0.00005   0.00015  -0.00076  -0.00062   0.00019
   D21       -0.01660   0.00015   0.00282   0.00077   0.00351  -0.01309
   D22        3.12897   0.00015   0.00210   0.00071   0.00278   3.13175
         Item               Value     Threshold  Converged?
 Maximum Force            0.006043     0.000450     NO 
 RMS     Force            0.001380     0.000300     NO 
 Maximum Displacement     0.072336     0.001800     NO 
 RMS     Displacement     0.022159     0.001200     NO 
 Predicted change in Energy=-2.278946D-04
 GradGradGradGradGradGradGradGradGradGradGradGradGradGradGradGradGradGrad

                          Input orientation:                          
 ---------------------------------------------------------------------
 Center     Atomic      Atomic             Coordinates (Angstroms)
 Number     Number       Type             X           Y           Z
 ---------------------------------------------------------------------
      1          9           0        2.809251    1.246406   -0.158298
      2         16           0        2.371401   -0.236661    0.252236
      3          6           0        0.572863   -0.034278    0.089202
      4          7           0       -0.126530   -0.685755    1.003955
      5          6           0       -1.451239   -0.613338    0.847668
      6          6           0       -2.033805    0.104717   -0.192824
      7          6           0       -1.169553    0.736772   -1.082729
      8          7           0        0.157756    0.666146   -0.953375
      9          8           0        2.724595   -0.405235    1.637940
     10          8           0        2.847770   -1.112732   -0.791490
     11          1           0       -2.051300   -1.145915    1.582255
     12          1           0       -3.111208    0.165036   -0.307976
     13          1           0       -1.540002    1.314836   -1.926565
 ---------------------------------------------------------------------
                    Distance matrix (angstroms):
                    1          2          3          4          5
     1  F    0.000000
     2  S    1.599919   0.000000
     3  C    2.588984   1.817216   0.000000
     4  N    3.701741   2.646965   1.323006   0.000000
     5  C    4.756301   3.887030   2.237760   1.335861   0.000000
     6  C    4.975927   4.440772   2.625563   2.386383   1.391980
     7  C    4.116452   3.907436   2.236952   2.732349   2.372462
     8  N    2.828299   2.677458   1.322829   2.395745   2.733075
     9  O    2.441630   1.439909   2.676966   2.934202   4.255048
    10  O    2.442938   1.443534   2.667186   3.500341   4.627928
    11  H    5.690139   4.707013   3.217324   2.061775   1.087809
    12  H    6.020266   5.525775   3.710776   3.369467   2.167227
    13  H    4.695472   4.738501   3.216773   3.819452   3.379660
                    6          7          8          9         10
     6  C    0.000000
     7  C    1.392249   0.000000
     8  N    2.386752   1.335466   0.000000
     9  O    5.123878   4.885756   3.801504   0.000000
    10  O    5.066593   4.432197   3.229054   2.533349   0.000000
    11  H    2.171472   3.379960   3.820067   4.833309   5.443955
    12  H    1.085216   2.167291   3.369537   6.178057   6.113582
    13  H    2.171196   1.087865   2.061621   5.818173   5.141403
                   11         12         13
    11  H    0.000000
    12  H    2.532779   0.000000
    13  H    4.316079   2.531908   0.000000
 Stoichiometry    C4H3FN2O2S
 Framework group  C1[X(C4H3FN2O2S)]
 Deg. of freedom    33
 Full point group                 C1      NOp   1
 Largest Abelian subgroup         C1      NOp   1
 Largest concise Abelian subgroup C1      NOp   1
                         Standard orientation:                         
 ---------------------------------------------------------------------
 Center     Atomic      Atomic             Coordinates (Angstroms)
 Number     Number       Type             X           Y           Z
 ---------------------------------------------------------------------
      1          9           0       -1.785695    1.110442   -0.894716
      2         16           0       -1.450668   -0.108976    0.085344
      3          6           0        0.362382   -0.033906   -0.012065
      4          7           0        0.950586   -1.218948   -0.006122
      5          6           0        2.285752   -1.177542    0.005755
      6          6           0        2.987264    0.024728   -0.000326
      7          6           0        2.231975    1.194298   -0.002259
      8          7           0        0.896634    1.176182   -0.000250
      9          8           0       -1.929647   -1.303826   -0.559833
     10          8           0       -1.872871    0.293277    1.405847
     11          1           0        2.795927   -2.138222    0.017759
     12          1           0        4.072198    0.049432    0.001361
     13          1           0        2.699184    2.176726   -0.002327
 ---------------------------------------------------------------------
 Rotational constants (GHZ):           2.6916798           0.8686525           0.7594503
 Standard basis: 6-31G(d) (6D, 7F)
 There are   160 symmetry adapted cartesian basis functions of A   symmetry.
 There are   160 symmetry adapted basis functions of A   symmetry.
   160 basis functions,   316 primitive gaussians,   160 cartesian basis functions
    41 alpha electrons       41 beta electrons
       nuclear repulsion energy       645.8056795695 Hartrees.
 NAtoms=   13 NActive=   13 NUniq=   13 SFac= 1.00D+00 NAtFMM=   60 NAOKFM=F Big=F
 Integral buffers will be    131072 words long.
 Raffenetti 2 integral format.
 Two-electron integral symmetry is turned on.
 R6APFD:  NTU= -4 IXU= 1 FactS= 1.050
 Nuclear repulsion after empirical dispersion term =      645.7949497057 Hartrees.
 One-electron integrals computed using PRISM.
 NBasis=   160 RedAO= T EigKep=  1.37D-03  NBF=   160
 NBsUse=   160 1.00D-06 EigRej= -1.00D+00 NBFU=   160
 Initial guess from the checkpoint file:  "HMZIGHBQOOGZAK-UHFFFAOYSA-N_conf_0_0.chk"
 B after Tr=    -0.000000    0.000000   -0.000000
         Rot=    0.999998   -0.000752    0.001783   -0.000691 Ang=  -0.24 deg.
 ExpMin= 1.17D-01 ExpMax= 2.19D+04 ExpMxC= 3.30D+03 IAcc=2 IRadAn=         4 AccDes= 0.00D+00
 Harris functional with IExCor= 3731 and IRadAn=       4 diagonalized for initial guess.
 HarFok:  IExCor= 3731 AccDes= 0.00D+00 IRadAn=         4 IDoV= 1 UseB2=F ITyADJ=14
 ICtDFT=  3500011 ScaDFX=  1.000000  1.000000  1.000000  1.000000
 FoFCou: FMM=F IPFlag=           0 FMFlag=      100000 FMFlg1=           0
         NFxFlg=           0 DoJE=T BraDBF=F KetDBF=T FulRan=T
         wScrn=  0.000000 ICntrl=       500 IOpCl=  0 I1Cent=   200000004 NGrid=           0
         NMat0=    1 NMatS0=      1 NMatT0=    0 NMatD0=    1 NMtDS0=    0 NMtDT0=    0
 Petite list used in FoFCou.
 Keep R1 ints in memory in canonical form, NReq=85041203.
 Requested convergence on RMS density matrix=1.00D-08 within  32 cycles.
 Requested convergence on MAX density matrix=1.00D-06.
 Requested convergence on             energy=1.00D-06.
 No special actions if energy rises.
 Integral accuracy reduced to 1.0D-05 until final iterations.
 Initial convergence to 1.0D-05 achieved.  Increase integral accuracy.
 SCF Done:  E(RAPFD) =  -911.631519167     A.U. after   11 cycles
            NFock= 11  Conv=0.94D-08     -V/T= 2.0062
 QCSCF skips out because SCF is already converged.
 R6APFD:  NTU= -4 IXU= 1 FactS= 1.050
 Calling FoFJK, ICntrl=      2127 FMM=F ISym2X=0 I1Cent= 0 IOpClX= 0 NMat=1 NMatS=1 NMatT=0.
 ***** Axes restored to original set *****
 -------------------------------------------------------------------
 Center     Atomic                   Forces (Hartrees/Bohr)
 Number     Number              X              Y              Z
 -------------------------------------------------------------------
      1        9          -0.000975476    0.000419563   -0.000228211
      2       16           0.000539201   -0.001225185   -0.000126355
      3        6          -0.001207780   -0.000722227   -0.000155500
      4        7           0.001087133    0.000365231   -0.000615950
      5        6          -0.000142586    0.000525995    0.000038405
      6        6          -0.000004153   -0.000294758    0.000235876
      7        6           0.000384973    0.000362119   -0.000030877
      8        7           0.000885080   -0.000170074    0.000398931
      9        8          -0.000005534    0.000051821    0.000078915
     10        8          -0.000577553    0.000733104    0.000455306
     11        1          -0.000015357    0.000046302    0.000022311
     12        1           0.000015257   -0.000073179   -0.000068112
     13        1           0.000016796   -0.000018711   -0.000004738
 -------------------------------------------------------------------
 Cartesian Forces:  Max     0.001225185 RMS     0.000493038

 GradGradGradGradGradGradGradGradGradGradGradGradGradGradGradGradGradGrad
 Berny optimization.
 Using GEDIIS/GDIIS optimizer.
 FormGI is forming the generalized inverse of G from B-inverse, IUseBI=4.
 Internal  Forces:  Max     0.002654861 RMS     0.000568082
 Search for a local minimum.
 Step number   4 out of a maximum of   65
 All quantities printed in internal units (Hartrees-Bohrs-Radians)
 Mixed Optimization -- En-DIIS/RFO-DIIS
 Update second derivatives using D2CorX and points    3    4
 DE= -2.85D-04 DEPred=-2.28D-04 R= 1.25D+00
 TightC=F SS=  1.41D+00  RLast= 6.38D-02 DXNew= 8.4853D-01 1.9127D-01
 Trust test= 1.25D+00 RLast= 6.38D-02 DXMaxT set to 5.05D-01
 ITU=  1  0  1  0
 Use linear search instead of GDIIS.
     Eigenvalues ---    0.00048   0.01427   0.02220   0.02305   0.02521
     Eigenvalues ---    0.03007   0.03675   0.04033   0.10999   0.12841
     Eigenvalues ---    0.13819   0.14133   0.15728   0.16994   0.17690
     Eigenvalues ---    0.19490   0.20325   0.21115   0.22793   0.25781
     Eigenvalues ---    0.27625   0.33261   0.36414   0.36634   0.37715
     Eigenvalues ---    0.38627   0.44481   0.48761   0.51754   0.54196
     Eigenvalues ---    0.62495   0.65665   0.70530
 RFO step:  Lambda=-8.06407996D-05 EMin= 4.77627994D-04
 Quartic linear search produced a step of  0.32311.
 Iteration  1 RMS(Cart)=  0.06123675 RMS(Int)=  0.00208430
 Iteration  2 RMS(Cart)=  0.00222199 RMS(Int)=  0.00003001
 Iteration  3 RMS(Cart)=  0.00000211 RMS(Int)=  0.00002998
 Iteration  4 RMS(Cart)=  0.00000000 RMS(Int)=  0.00002998
 Variable       Old X    -DE/DX   Delta X   Delta X   Delta X     New X
                                 (Linear)    (Quad)   (Total)
    R1        3.02341   0.00018   0.00145   0.00392   0.00536   3.02877
    R2        3.43404  -0.00099   0.00191  -0.00096   0.00095   3.43499
    R3        2.72103   0.00007  -0.00019   0.00004  -0.00015   2.72088
    R4        2.72788  -0.00096  -0.00046  -0.00031  -0.00077   2.72712
    R5        2.50012  -0.00125  -0.00087  -0.00178  -0.00265   2.49747
    R6        2.49978  -0.00079   0.00059   0.00086   0.00146   2.50124
    R7        2.52441   0.00012   0.00063   0.00170   0.00233   2.52674
    R8        2.63046  -0.00014  -0.00011  -0.00059  -0.00071   2.62976
    R9        2.05566   0.00000   0.00002  -0.00003  -0.00001   2.05565
   R10        2.63097   0.00020   0.00081   0.00133   0.00214   2.63311
   R11        2.05076  -0.00001   0.00008   0.00002   0.00010   2.05086
   R12        2.52366  -0.00036  -0.00101  -0.00095  -0.00196   2.52170
   R13        2.05577  -0.00001   0.00003  -0.00002   0.00002   2.05578
    A1        1.71591  -0.00265  -0.00300  -0.00523  -0.00823   1.70767
    A2        1.86328   0.00076  -0.00010  -0.00055  -0.00065   1.86263
    A3        1.86161   0.00069   0.00015  -0.00082  -0.00067   1.86094
    A4        1.92000   0.00043  -0.00059   0.00378   0.00318   1.92317
    A5        1.90639  -0.00037   0.00191  -0.00032   0.00158   1.90797
    A6        2.14578   0.00046   0.00070   0.00134   0.00203   2.14780
    A7        1.98923   0.00050   0.00797   0.00721   0.01515   2.00438
    A8        2.02668  -0.00143  -0.00754  -0.00943  -0.01701   2.00967
    A9        2.26501   0.00096   0.00013   0.00221   0.00232   2.26733
   A10        2.00054  -0.00043  -0.00042  -0.00177  -0.00219   1.99835
   A11        2.12991  -0.00005   0.00019   0.00026   0.00045   2.13036
   A12        2.02804   0.00004  -0.00023  -0.00012  -0.00034   2.02769
   A13        2.12523   0.00001   0.00004  -0.00014  -0.00010   2.12513
   A14        2.04000  -0.00005   0.00013   0.00059   0.00071   2.04071
   A15        2.12174   0.00004  -0.00001  -0.00014  -0.00015   2.12159
   A16        2.12144   0.00001  -0.00012  -0.00045  -0.00057   2.12087
   A17        2.13063  -0.00022  -0.00066  -0.00081  -0.00147   2.12916
   A18        2.12428   0.00012   0.00021   0.00011   0.00031   2.12459
   A19        2.02827   0.00010   0.00046   0.00070   0.00116   2.02943
   A20        2.00009  -0.00021   0.00065  -0.00049   0.00018   2.00026
    D1       -2.49165   0.00018   0.00208   0.11252   0.11459  -2.37707
    D2        0.71503  -0.00026  -0.00496   0.11243   0.10747   0.82250
    D3       -0.54903  -0.00004   0.00043   0.11070   0.11112  -0.43791
    D4        2.65765  -0.00047  -0.00661   0.11061   0.10400   2.76166
    D5        1.85476   0.00066   0.00264   0.11577   0.11840   1.97316
    D6       -1.22175   0.00023  -0.00441   0.11567   0.11128  -1.11047
    D7       -3.07317  -0.00043  -0.00949  -0.00234  -0.01198  -3.08515
    D8       -0.00764  -0.00003  -0.00165  -0.00272  -0.00434  -0.01198
    D9        3.08321   0.00043   0.00874   0.00196   0.01058   3.09379
   D10        0.01902  -0.00005   0.00001   0.00175   0.00177   0.02079
   D11       -0.00985   0.00012   0.00219   0.00186   0.00401  -0.00584
   D12        3.13453   0.00003   0.00090   0.00137   0.00226   3.13679
   D13        0.01388  -0.00014  -0.00123  -0.00040  -0.00161   0.01227
   D14       -3.13288  -0.00012  -0.00134  -0.00087  -0.00219  -3.13507
   D15       -3.13066  -0.00004   0.00013   0.00012   0.00024  -3.13042
   D16        0.00577  -0.00002   0.00002  -0.00035  -0.00034   0.00543
   D17       -0.00155   0.00005  -0.00056  -0.00065  -0.00119  -0.00274
   D18        3.13661   0.00002  -0.00031  -0.00093  -0.00124   3.13537
   D19       -3.13797   0.00003  -0.00045  -0.00018  -0.00062  -3.13859
   D20        0.00019   0.00001  -0.00020  -0.00046  -0.00067  -0.00048
   D21       -0.01309   0.00004   0.00113   0.00012   0.00122  -0.01187
   D22        3.13175   0.00007   0.00090   0.00038   0.00127   3.13302
         Item               Value     Threshold  Converged?
 Maximum Force            0.002655     0.000450     NO 
 RMS     Force            0.000568     0.000300     NO 
 Maximum Displacement     0.202283     0.001800     NO 
 RMS     Displacement     0.061346     0.001200     NO 
 Predicted change in Energy=-5.993740D-05
 GradGradGradGradGradGradGradGradGradGradGradGradGradGradGradGradGradGrad

                          Input orientation:                          
 ---------------------------------------------------------------------
 Center     Atomic      Atomic             Coordinates (Angstroms)
 Number     Number       Type             X           Y           Z
 ---------------------------------------------------------------------
      1          9           0        2.776646    1.283708   -0.051255
      2         16           0        2.372938   -0.239432    0.241819
      3          6           0        0.571220   -0.051889    0.091040
      4          7           0       -0.131290   -0.667835    1.025777
      5          6           0       -1.456524   -0.582363    0.870000
      6          6           0       -2.032452    0.109004   -0.191550
      7          6           0       -1.162610    0.702592   -1.103989
      8          7           0        0.162874    0.620595   -0.973354
      9          8           0        2.731889   -0.507175    1.610239
     10          8           0        2.866427   -1.018283   -0.868353
     11          1           0       -2.061484   -1.084029    1.622109
[...]
 Alpha  occ. eigenvalues --  -14.42555 -10.34519 -10.30884 -10.30837 -10.27554
 Alpha  occ. eigenvalues --   -8.21374  -6.16310  -6.15961  -6.15863  -1.27866
 Alpha  occ. eigenvalues --   -1.13895  -1.06081  -1.05760  -0.96110  -0.86030
 Alpha  occ. eigenvalues --   -0.75129  -0.72039  -0.67207  -0.60526  -0.57397
 Alpha  occ. eigenvalues --   -0.55078  -0.53335  -0.51213  -0.49029  -0.48584
 Alpha  occ. eigenvalues --   -0.46937  -0.44982  -0.44772  -0.39429  -0.38469
 Alpha  occ. eigenvalues --   -0.36892  -0.35909  -0.34271  -0.33557  -0.32918
 Alpha  occ. eigenvalues --   -0.30459
 Alpha virt. eigenvalues --   -0.08075  -0.07802   0.03161   0.05506   0.08307
 Alpha virt. eigenvalues --    0.08985   0.10318   0.13408   0.14862   0.15786
 Alpha virt. eigenvalues --    0.20951   0.22882   0.29159   0.29451   0.32032
 Alpha virt. eigenvalues --    0.33549   0.36771   0.39744   0.41256   0.44590
 Alpha virt. eigenvalues --    0.48713   0.52545   0.55335   0.56430   0.56707
 Alpha virt. eigenvalues --    0.57946   0.58950   0.62127   0.62780   0.64238
 Alpha virt. eigenvalues --    0.69998   0.74415   0.75441   0.77783   0.80043
 Alpha virt. eigenvalues --    0.80444   0.80968   0.83614   0.84846   0.86220
 Alpha virt. eigenvalues --    0.87749   0.88632   0.89387   0.93631   0.94959
 Alpha virt. eigenvalues --    1.01171   1.02131   1.03166   1.06890   1.07370
 Alpha virt. eigenvalues --    1.10122   1.12016   1.14362   1.15904   1.19303
 Alpha virt. eigenvalues --    1.21028   1.26598   1.31580   1.34373   1.37350
 Alpha virt. eigenvalues --    1.40157   1.41457   1.43265   1.44325   1.46412
 Alpha virt. eigenvalues --    1.51406   1.57886   1.58664   1.63811   1.67571
 Alpha virt. eigenvalues --    1.75442   1.76738   1.78037   1.78629   1.79453
 Alpha virt. eigenvalues --    1.80633   1.81964   1.84130   1.85352   1.88151
 Alpha virt. eigenvalues --    1.89207   1.93082   1.97400   1.99520   2.09258
 Alpha virt. eigenvalues --    2.11027   2.12920   2.14446   2.14769   2.18602
 Alpha virt. eigenvalues --    2.20920   2.23426   2.27284   2.30996   2.32359
 Alpha virt. eigenvalues --    2.37959   2.47755   2.54570   2.58939   2.62381
 Alpha virt. eigenvalues --    2.66282   2.68829   2.69158   2.79195   2.80689
 Alpha virt. eigenvalues --    2.82915   2.86436   3.07807   3.30400   3.73823
 Alpha virt. eigenvalues --    3.89342   3.95420   3.98452   4.05034   4.15251
 Alpha virt. eigenvalues --    4.19888   4.27004   4.47911   4.65229
          Condensed to atoms (all electrons):
               1          2          3          4          5          6
     1  F    9.196963   0.201328  -0.036981   0.000788  -0.000032  -0.000005
     2  S    0.201328  13.465669   0.220258  -0.030255  -0.000673   0.000837
     3  C   -0.036981   0.220258   5.413415   0.325161  -0.096475  -0.027499
     4  N    0.000788  -0.030255   0.325161   6.696946   0.408084  -0.016163
     5  C   -0.000032  -0.000673  -0.096475   0.408084   5.027653   0.392199
     6  C   -0.000005   0.000837  -0.027499  -0.016163   0.392199   5.084276
     7  C    0.000041   0.000993  -0.046696  -0.032969  -0.037812   0.551619
     8  N    0.001930  -0.029105   0.197129  -0.039063  -0.014662  -0.047782
     9  O   -0.031625   0.463776  -0.050491   0.004293   0.000207  -0.000006
    10  O   -0.034276   0.454807  -0.057245   0.000415  -0.000089   0.000006
    11  H    0.000000  -0.000124   0.006616  -0.044728   0.373212  -0.038102
    12  H   -0.000000  -0.000004   0.000311   0.003591  -0.030850   0.363334
    13  H    0.000002  -0.000107   0.006419   0.000302   0.003796  -0.039884
               7          8          9         10         11         12
     1  F    0.000041   0.001930  -0.031625  -0.034276   0.000000  -0.000000
     2  S    0.000993  -0.029105   0.463776   0.454807  -0.000124  -0.000004
     3  C   -0.046696   0.197129  -0.050491  -0.057245   0.006616   0.000311
     4  N   -0.032969  -0.039063   0.004293   0.000415  -0.044728   0.003591
     5  C   -0.037812  -0.014662   0.000207  -0.000089   0.373212  -0.030850
     6  C    0.551619  -0.047782  -0.000006   0.000006  -0.038102   0.363334
     7  C    4.762289   0.399700  -0.000055  -0.000167   0.004024  -0.028216
     8  N    0.399700   6.945138   0.001576   0.002403   0.000415   0.003658
     9  O   -0.000055   0.001576   8.110755  -0.038611   0.000004  -0.000000
    10  O   -0.000167   0.002403  -0.038611   8.134076   0.000000  -0.000000
    11  H    0.004024   0.000415   0.000004   0.000000   0.476957  -0.002055
    12  H   -0.028216   0.003658  -0.000000  -0.000000  -0.002055   0.488465
    13  H    0.367304  -0.044823   0.000000  -0.000000  -0.000076  -0.001723
              13
     1  F    0.000002
     2  S   -0.000107
     3  C    0.006419
     4  N    0.000302
     5  C    0.003796
     6  C   -0.039884
     7  C    0.367304
     8  N   -0.044823
     9  O    0.000000
    10  O   -0.000000
    11  H   -0.000076
    12  H   -0.001723
    13  H    0.475184
 Mulliken charges:
               1
     1  F   -0.298135
     2  S    1.252601
     3  C    0.146079
     4  N   -0.276400
     5  C   -0.024556
     6  C   -0.222830
     7  C    0.059942
     8  N   -0.376513
     9  O   -0.459822
    10  O   -0.461319
    11  H    0.223857
    12  H    0.203489
    13  H    0.233607
 Sum of Mulliken charges =  -0.00000
 Mulliken charges with hydrogens summed into heavy atoms:
               1
     1  F   -0.298135
     2  S    1.252601
     3  C    0.146079
     4  N   -0.276400
     5  C    0.199301
     6  C   -0.019341
     7  C    0.293550
     8  N   -0.376513
     9  O   -0.459822
    10  O   -0.461319
 Electronic spatial extent (au):  <R**2>=           1476.5742
 Charge=             -0.0000 electrons
 Dipole moment (field-independent basis, Debye):
    X=              6.2600    Y=              0.4921    Z=             -0.6307  Tot=              6.3109
 Quadrupole moment (field-independent basis, Debye-Ang):
   XX=            -54.5511   YY=            -60.1379   ZZ=            -65.5996
   XY=             -0.5178   XZ=              1.5508   YZ=             -1.5981
 Traceless Quadrupole moment (field-independent basis, Debye-Ang):
   XX=              5.5451   YY=             -0.0417   ZZ=             -5.5034
   XY=             -0.5178   XZ=              1.5508   YZ=             -1.5981
 Octapole moment (field-independent basis, Debye-Ang**2):
  XXX=             24.2540  YYY=              8.7184  ZZZ=             -7.6936  XYY=             12.9420
  XXY=              6.4763  XXZ=             -5.4396  XZZ=             -8.9669  YZZ=             -0.5288
  YYZ=             -0.7215  XYZ=              2.8667
 Hexadecapole moment (field-independent basis, Debye-Ang**3):
 XXXX=          -1157.5866 YYYY=           -341.2625 ZZZZ=           -154.9556 XXXY=            -11.0821
 XXXZ=             15.3041 YYYX=             -8.5225 YYYZ=             -5.8535 ZZZX=             13.7192
 ZZZY=             -6.0441 XXYY=           -244.6744 XXZZ=           -266.9049 YYZZ=            -89.5077
 XXYZ=             -7.2007 YYXZ=              1.3405 ZZXY=              1.7720
 N-N= 6.461758470547D+02 E-N=-3.440417776033D+03  KE= 9.060407446327D+02
 Evaluate density.
 Using the total density.
 Monte-Carlo method of calculating molar volume:
 based on  0.001 e/bohr**3 density envelope.
 Number of points per bohr**3 =   20 CutOff= 1.00D-04
 Using the CI density.
 There are       383 points.  Will hold       383 in memory.
 LenV=   536782340 MDV=   536870912.
 Box volume = 7047.980 fraction occupied=0.141
 Integrated density= 7.2206003442397304D+01 error=-9.7939965576026964D+00
 Molar volume =  993.710 bohr**3/mol ( 88.678 cm**3/mol)
 Recommended a0 for SCRF calculation =  4.11 angstrom (  7.76 bohr)
 ******************************Gaussian NBO Version 3.1******************************
             N A T U R A L   A T O M I C   O R B I T A L   A N D
          N A T U R A L   B O N D   O R B I T A L   A N A L Y S I S
 ******************************Gaussian NBO Version 3.1******************************
       /RESON  / : Allow strongly delocalized NBO set

 Analyzing the CI density

 Job title: HMZIGHBQOOGZAK-UHFFFAOYSA-N_conf_0                              

 Storage needed:     77560 in NPA ( 536869937 available)


 NATURAL POPULATIONS:  Natural atomic orbital occupancies 
                                                          
   NAO  Atom  No  lang   Type(AO)    Occupancy
 --------------------------------------------
     1    F    1  S      Cor( 1S)     1.99997
     2    F    1  S      Val( 2S)     1.92729
     3    F    1  S      Ryd( 3S)     0.00246
     4    F    1  S      Ryd( 4S)     0.00012
     5    F    1  px     Val( 2p)     1.93883
     6    F    1  px     Ryd( 3p)     0.00019
     7    F    1  py     Val( 2p)     1.83534
     8    F    1  py     Ryd( 3p)     0.00029
     9    F    1  pz     Val( 2p)     1.78672
    10    F    1  pz     Ryd( 3p)     0.00034
    11    F    1  dxy    Ryd( 3d)     0.00095
    12    F    1  dxz    Ryd( 3d)     0.00125
    13    F    1  dyz    Ryd( 3d)     0.00181
    14    F    1  dx2y2  Ryd( 3d)     0.00091
    15    F    1  dz2    Ryd( 3d)     0.00178
 
    16    S    2  S      Cor( 1S)     2.00000
    17    S    2  S      Cor( 2S)     1.99922
    18    S    2  S      Val( 3S)     1.04605
    19    S    2  S      Ryd( 4S)     0.00487
    20    S    2  S      Ryd( 5S)     0.00026
    21    S    2  px     Cor( 2p)     1.99992
    22    S    2  px     Val( 3p)     0.90646
    23    S    2  px     Ryd( 4p)     0.00912
    24    S    2  py     Cor( 2p)     1.99988
    25    S    2  py     Val( 3p)     0.71209
    26    S    2  py     Ryd( 4p)     0.01192
    27    S    2  pz     Cor( 2p)     1.99988
    28    S    2  pz     Val( 3p)     0.73633
    29    S    2  pz     Ryd( 4p)     0.01054
    30    S    2  dxy    Ryd( 3d)     0.02537
    31    S    2  dxz    Ryd( 3d)     0.02647
    32    S    2  dyz    Ryd( 3d)     0.04179
    33    S    2  dx2y2  Ryd( 3d)     0.04101
    34    S    2  dz2    Ryd( 3d)     0.03771
 
    35    C    3  S      Cor( 1S)     1.99905
    36    C    3  S      Val( 2S)     0.89723
    37    C    3  S      Ryd( 3S)     0.00459
    38    C    3  S      Ryd( 4S)     0.00026
    39    C    3  px     Val( 2p)     1.05593
    40    C    3  px     Ryd( 3p)     0.00976
    41    C    3  py     Val( 2p)     0.86513
    42    C    3  py     Ryd( 3p)     0.01645
    43    C    3  pz     Val( 2p)     1.11009
    44    C    3  pz     Ryd( 3p)     0.00622
    45    C    3  dxy    Ryd( 3d)     0.00105
    46    C    3  dxz    Ryd( 3d)     0.00086
    47    C    3  dyz    Ryd( 3d)     0.00202
    48    C    3  dx2y2  Ryd( 3d)     0.00208
    49    C    3  dz2    Ryd( 3d)     0.00042
 
    50    N    4  S      Cor( 1S)     1.99910
    51    N    4  S      Val( 2S)     1.33744
    52    N    4  S      Ryd( 3S)     0.00058
    53    N    4  S      Ryd( 4S)     0.00001
    54    N    4  px     Val( 2p)     1.31232
    55    N    4  px     Ryd( 3p)     0.00366
    56    N    4  py     Val( 2p)     1.25658
    57    N    4  py     Ryd( 3p)     0.00486
    58    N    4  pz     Val( 2p)     1.26414
    59    N    4  pz     Ryd( 3p)     0.00053
    60    N    4  dxy    Ryd( 3d)     0.00215
    61    N    4  dxz    Ryd( 3d)     0.00192
    62    N    4  dyz    Ryd( 3d)     0.00256
    63    N    4  dx2y2  Ryd( 3d)     0.00237
    64    N    4  dz2    Ryd( 3d)     0.00161
 
    65    C    5  S      Cor( 1S)     1.99915
    66    C    5  S      Val( 2S)     0.93841
    67    C    5  S      Ryd( 3S)     0.00152
    68    C    5  S      Ryd( 4S)     0.00008
    69    C    5  px     Val( 2p)     0.90617
    70    C    5  px     Ryd( 3p)     0.00716
    71    C    5  py     Val( 2p)     1.15410
    72    C    5  py     Ryd( 3p)     0.00626
    73    C    5  pz     Val( 2p)     1.07118
    74    C    5  pz     Ryd( 3p)     0.00641
    75    C    5  dxy    Ryd( 3d)     0.00108
    76    C    5  dxz    Ryd( 3d)     0.00093
    77    C    5  dyz    Ryd( 3d)     0.00054
    78    C    5  dx2y2  Ryd( 3d)     0.00093
    79    C    5  dz2    Ryd( 3d)     0.00046
 
    80    C    6  S      Cor( 1S)     1.99911
    81    C    6  S      Val( 2S)     0.99123
    82    C    6  S      Ryd( 3S)     0.00070
    83    C    6  S      Ryd( 4S)     0.00003
    84    C    6  px     Val( 2p)     1.22783
    85    C    6  px     Ryd( 3p)     0.00368
    86    C    6  py     Val( 2p)     1.00527
    87    C    6  py     Ryd( 3p)     0.00471
    88    C    6  pz     Val( 2p)     1.13289
    89    C    6  pz     Ryd( 3p)     0.00337
    90    C    6  dxy    Ryd( 3d)     0.00061
    91    C    6  dxz    Ryd( 3d)     0.00051
    92    C    6  dyz    Ryd( 3d)     0.00067
    93    C    6  dx2y2  Ryd( 3d)     0.00063
    94    C    6  dz2    Ryd( 3d)     0.00050
 
    95    C    7  S      Cor( 1S)     1.99916
    96    C    7  S      Val( 2S)     0.95423
    97    C    7  S      Ryd( 3S)     0.00147
    98    C    7  S      Ryd( 4S)     0.00008
    99    C    7  px     Val( 2p)     0.92120
   100    C    7  px     Ryd( 3p)     0.00720
   101    C    7  py     Val( 2p)     1.17054
   102    C    7  py     Ryd( 3p)     0.00712
   103    C    7  pz     Val( 2p)     0.87798
   104    C    7  pz     Ryd( 3p)     0.00083
   105    C    7  dxy    Ryd( 3d)     0.00115
   106    C    7  dxz    Ryd( 3d)     0.00181
   107    C    7  dyz    Ryd( 3d)     0.00063
   108    C    7  dx2y2  Ryd( 3d)     0.00102
   109    C    7  dz2    Ryd( 3d)     0.00044
 
   110    N    8  S      Cor( 1S)     1.99913
   111    N    8  S      Val( 2S)     1.32982
   112    N    8  S      Ryd( 3S)     0.00071
   113    N    8  S      Ryd( 4S)     0.00002
   114    N    8  px     Val( 2p)     1.30016
   115    N    8  px     Ryd( 3p)     0.00450
   116    N    8  py     Val( 2p)     1.24565
   117    N    8  py     Ryd( 3p)     0.00482
   118    N    8  pz     Val( 2p)     1.46758
   119    N    8  pz     Ryd( 3p)     0.00511
   120    N    8  dxy    Ryd( 3d)     0.00230
   121    N    8  dxz    Ryd( 3d)     0.00155
   122    N    8  dyz    Ryd( 3d)     0.00241
   123    N    8  dx2y2  Ryd( 3d)     0.00272
   124    N    8  dz2    Ryd( 3d)     0.00165
 
   125    O    9  S      Cor( 1S)     1.99988
   126    O    9  S      Val( 2S)     1.82809
   127    O    9  S      Ryd( 3S)     0.00119
   128    O    9  S      Ryd( 4S)     0.00002
   129    O    9  px     Val( 2p)     1.74668
   130    O    9  px     Ryd( 3p)     0.00087
   131    O    9  py     Val( 2p)     1.54452
   132    O    9  py     Ryd( 3p)     0.00075
   133    O    9  pz     Val( 2p)     1.74079
   134    O    9  pz     Ryd( 3p)     0.00050
   135    O    9  dxy    Ryd( 3d)     0.00580
   136    O    9  dxz    Ryd( 3d)     0.00144
   137    O    9  dyz    Ryd( 3d)     0.00550
   138    O    9  dx2y2  Ryd( 3d)     0.00578
   139    O    9  dz2    Ryd( 3d)     0.00272
 
   140    O   10  S      Cor( 1S)     1.99988
   141    O   10  S      Val( 2S)     1.83088
   142    O   10  S      Ryd( 3S)     0.00135
   143    O   10  S      Ryd( 4S)     0.00002
   144    O   10  px     Val( 2p)     1.76090
   145    O   10  px     Ryd( 3p)     0.00094
   146    O   10  py     Val( 2p)     1.70699
   147    O   10  py     Ryd( 3p)     0.00055
   148    O   10  pz     Val( 2p)     1.55985
   149    O   10  pz     Ryd( 3p)     0.00071
   150    O   10  dxy    Ryd( 3d)     0.00190
   151    O   10  dxz    Ryd( 3d)     0.00516
   152    O   10  dyz    Ryd( 3d)     0.00567
   153    O   10  dx2y2  Ryd( 3d)     0.00181
   154    O   10  dz2    Ryd( 3d)     0.00644
 
   155    H   11  S      Val( 1S)     0.73032
   156    H   11  S      Ryd( 2S)     0.00059
 
   157    H   12  S      Val( 1S)     0.72824
   158    H   12  S      Ryd( 2S)     0.00061
 
   159    H   13  S      Val( 1S)     0.72479
   160    H   13  S      Ryd( 2S)     0.00065


 Summary of Natural Population Analysis:                  
                                                          
                                       Natural Population 
                Natural  -----------------------------------------------
    Atom  No    Charge         Core      Valence    Rydberg      Total
 -----------------------------------------------------------------------
      F    1   -0.49824      1.99997     7.48817    0.01010     9.49824
      S    2    2.39112      9.99890     3.40093    0.20905    13.60888
      C    3    0.02885      1.99905     3.92838    0.04372     5.97115
      N    4   -0.18984      1.99910     5.17048    0.02026     7.18984
      C    5   -0.09437      1.99915     4.06987    0.02535     6.09437
      C    6   -0.37174      1.99911     4.35722    0.01541     6.37174
      C    7    0.05514      1.99916     3.92395    0.02175     5.94486
      N    8   -0.36812      1.99913     5.34321    0.02578     7.36812
      O    9   -0.88454      1.99988     6.86008    0.02458     8.88454
      O   10   -0.88305      1.99988     6.85862    0.02455     8.88305
      H   11    0.26909      0.00000     0.73032    0.00059     0.73091
      H   12    0.27115      0.00000     0.72824    0.00061     0.72885
      H   13    0.27456      0.00000     0.72479    0.00065     0.72544
 =======================================================================
   * Total *    0.00000     27.99334    53.58426    0.42241    82.00000

                                 Natural Population      
 --------------------------------------------------------
   Core                      27.99334 ( 99.9762% of  28)
   Valence                   53.58426 ( 99.2301% of  54)
   Natural Minimal Basis     81.57759 ( 99.4849% of  82)
   Natural Rydberg Basis      0.42241 (  0.5151% of  82)
 --------------------------------------------------------

    Atom  No          Natural Electron Configuration
 ----------------------------------------------------------------------------
      F    1      [core]2S( 1.93)2p( 5.56)3d( 0.01)
      S    2      [core]3S( 1.05)3p( 2.35)3d( 0.17)4p( 0.03)
      C    3      [core]2S( 0.90)2p( 3.03)3p( 0.03)3d( 0.01)
      N    4      [core]2S( 1.34)2p( 3.83)3p( 0.01)3d( 0.01)
      C    5      [core]2S( 0.94)2p( 3.13)3p( 0.02)
      C    6      [core]2S( 0.99)2p( 3.37)3p( 0.01)
      C    7      [core]2S( 0.95)2p( 2.97)3p( 0.02)3d( 0.01)
      N    8      [core]2S( 1.33)2p( 4.01)3p( 0.01)3d( 0.01)
      O    9      [core]2S( 1.83)2p( 5.03)3d( 0.02)
      O   10      [core]2S( 1.83)2p( 5.03)3d( 0.02)
      H   11            1S( 0.73)
      H   12            1S( 0.73)
      H   13            1S( 0.72)


 NBO analysis skipped by request.
 1\1\GINC-DELLA-R3C1N1\SP\RAPFD TD-FC\6-31G(d)\C4H3F1N2O2S1\SHIVAANI\28
 -Jan-2024\0\\# TD(NStates=10, Root=1) APFD/6-31G* volume pop=NPA densi
 ty=current Geom=AllCheck Guess=Read\\HMZIGHBQOOGZAK-UHFFFAOYSA-N_conf_
 0\\0,1\F,0,2.7495095324,1.3010747223,0.0238586125\S,0,2.3730111542,-0.
 2422884448,0.2364244164\C,0,0.5720420892,-0.0654556304,0.0826466575\N,
 0,-0.1299891972,-0.6531000265,1.0344502789\C,0,-1.4552796,-0.560555528
 ,0.8831861003\C,0,-2.0306776655,0.1108097366,-0.1909431696\C,0,-1.1604
 757935,0.6806333845,-1.1179033635\N,0,0.1649138511,0.5914266696,-0.991
 1775898\O,0,2.7288295505,-0.5751630235,1.5910787554\O,0,2.8820363606,-
 0.9546429379,-0.9098113322\H,0,-2.0605881244,-1.0393073237,1.649791601
 7\H,0,-3.1075011977,0.1849128507,-0.303497209\H,0,-1.5258309596,1.2216
 55551,-1.9881037585\\Version=ES64L-G16RevA.03\State=1-A\HF=-911.631622
 6\RMSD=4.122e-09\Dipole=-2.4345072,0.4210188,-0.2463044\Quadrupole=4.1
 380403,-2.0146978,-2.1233425,1.1133032,0.7200475,-2.2705148\PG=C01 [X(
 C4H3F1N2O2S1)]\\@


 A MAN THINKING OR WORKING IS ALWAYS ALONE, 
 LET HIM BE WHERE HE WILL.

                                    -- THOREAU
 Job cpu time:       0 days  0 hours  5 minutes 57.0 seconds.
 Elapsed time:       0 days  0 hours  3 minutes  1.1 seconds.
 File lengths (MBytes):  RWF=    266 Int=      0 D2E=      0 Chk=     20 Scr=      1
 Normal termination of Gaussian 16 at Sun Jan 28 15:19:14 2024.
