 Entering Gaussian System, Link 0=g16
 Input=LLQSKDZICCVCEB-UHFFFAOYSA-N_conf_0.gjf
 Output=LLQSKDZICCVCEB-UHFFFAOYSA-N_conf_0.log
 Initial command:
 /opt/export/g16/l1.exe "/tmp/Gau-2486216.inp" -scrdir="/tmp/"
 Entering Link 1 = /opt/export/g16/l1.exe PID=   2486219.
  
 Copyright (c) 1988,1990,1992,1993,1995,1998,2003,2009,2016,
            Gaussian, Inc.  All Rights Reserved.
  
 This is part of the Gaussian(R) 16 program.  It is based on
 the Gaussian(R) 09 system (copyright 2009, Gaussian, Inc.),
 the Gaussian(R) 03 system (copyright 2003, Gaussian, Inc.),
 the Gaussian(R) 98 system (copyright 1998, Gaussian, Inc.),
 the Gaussian(R) 94 system (copyright 1995, Gaussian, Inc.),
 the Gaussian 92(TM) system (copyright 1992, Gaussian, Inc.),
 the Gaussian 90(TM) system (copyright 1990, Gaussian, Inc.),
 the Gaussian 88(TM) system (copyright 1988, Gaussian, Inc.),
 the Gaussian 86(TM) system (copyright 1986, Carnegie Mellon
 University), and the Gaussian 82(TM) system (copyright 1983,
 Carnegie Mellon University). Gaussian is a federally registered
 trademark of Gaussian, Inc.
  
 This software contains proprietary and confidential information,
 including trade secrets, belonging to Gaussian, Inc.
  
 This software is provided under written license and may be
 used, copied, transmitted, or stored only in accord with that
 written license.
  
 The following legend is applicable only to US Government
 contracts under FAR:
  
                    RESTRICTED RIGHTS LEGEND
  
 Use, reproduction and disclosure by the US Government is
 subject to restrictions as set forth in subparagraphs (a)
 and (c) of the Commercial Computer Software - Restricted
 Rights clause in FAR 52.227-19.
  
 Gaussian, Inc.
 340 Quinnipiac St., Bldg. 40, Wallingford CT 06492
  
  
 ---------------------------------------------------------------
 Warning -- This program may not be used in any manner that
 competes with the business of Gaussian, Inc. or will provide
 assistance to any competitor of Gaussian, Inc.  The licensee
 of this program is prohibited from giving any competitor of
 Gaussian, Inc. access to this program.  By using this program,
 the user acknowledges that Gaussian, Inc. is engaged in the
 business of creating and licensing software in the field of
 computational chemistry and represents and warrants to the
 licensee that it is not a competitor of Gaussian, Inc. and that
 it will not use this program in any manner prohibited above.
 ---------------------------------------------------------------
  

 Cite this work as:
 Gaussian 16, Revision A.03,
 M. J. Frisch, G. W. Trucks, H. B. Schlegel, G. E. Scuseria, 
 M. A. Robb, J. R. Cheeseman, G. Scalmani, V. Barone, 
 G. A. Petersson, H. Nakatsuji, X. Li, M. Caricato, A. V. Marenich, 
 J. Bloino, B. G. Janesko, R. Gomperts, B. Mennucci, H. P. Hratchian, 
 J. V. Ortiz, A. F. Izmaylov, J. L. Sonnenberg, D. Williams-Young, 
 F. Ding, F. Lipparini, F. Egidi, J. Goings, B. Peng, A. Petrone, 
 T. Henderson, D. Ranasinghe, V. G. Zakrzewski, J. Gao, N. Rega, 
 G. Zheng, W. Liang, M. Hada, M. Ehara, K. Toyota, R. Fukuda, 
 J. Hasegawa, M. Ishida, T. Nakajima, Y. Honda, O. Kitao, H. Nakai, 
 T. Vreven, K. Throssell, J. A. Montgomery, Jr., J. E. Peralta, 
 F. Ogliaro, M. J. Bearpark, J. J. Heyd, E. N. Brothers, K. N. Kudin, 
 V. N. Staroverov, T. A. Keith, R. Kobayashi, J. Normand, 
 K. Raghavachari, A. P. Rendell, J. C. Burant, S. S. Iyengar, 
 J. Tomasi, M. Cossi, J. M. Millam, M. Klene, C. Adamo, R. Cammi, 
 J. W. Ochterski, R. L. Martin, K. Morokuma, O. Farkas, 
 J. B. Foresman, and D. J. Fox, Gaussian, Inc., Wallingford CT, 2016.
 
 ******************************************
 Gaussian 16:  ES64L-G16RevA.03 25-Dec-2016
                28-Jan-2024 
 ******************************************
 %nprocshared=3
 Will use up to    3 processors via shared memory.
 %mem=6GB
 %Chk=LLQSKDZICCVCEB-UHFFFAOYSA-N_conf_0_0.chk
 --------------------------------
 # opt=CalcFc APFD/6-31G* scf=xqc
 --------------------------------
 1/10=4,18=20,19=15,26=3,38=1/1,3;
 2/9=110,12=2,17=6,18=5,40=1/2;
 3/5=1,6=6,7=1,11=2,25=1,30=1,71=2,74=-44,140=1/1,2,3;
 4//1;
 5/5=2,8=3,13=1,38=5/2,8;
 8/6=4,10=90,11=11/1;
 11/6=1,8=1,9=11,15=111,16=1/1,2,10;
 10/6=1,13=1/2;
 6/7=2,8=2,9=2,10=2,28=1/1;
 7/10=1,18=20,25=1/1,2,3,16;
 1/10=4,18=20,19=15,26=3/3(2);
 2/9=110/2;
 99//99;
 2/9=110/2;
 3/5=1,6=6,7=1,11=2,25=1,30=1,71=1,74=-44/1,2,3;
 4/5=5,16=3,69=1/1;
 5/5=2,8=3,13=1,38=5/2,8;
 7//1,2,3,16;
 1/18=20,19=15,26=3/3(-5);
 2/9=110/2;
 6/7=2,8=2,9=2,10=2,19=2,28=1/1;
 99/9=1/99;
 ----------------------------------
 LLQSKDZICCVCEB-UHFFFAOYSA-N_conf_0
 ----------------------------------
 Symbolic Z-matrix:
 Charge =  0 Multiplicity = 1
 O                    -1.49817  -2.98399   0.71156 
 S                    -0.42577  -2.15225   0.19924 
 C                    -0.96128  -0.46674   0.26906 
 C                    -2.23125  -0.18443   0.79602 
 C                    -2.716     1.12446   0.78932 
 C                    -1.9469    2.15098   0.24532 
 C                    -0.68624   1.87252  -0.28501 
 C                    -0.17995   0.56339  -0.26507 
 C                     1.16935   0.3756   -0.83346 
 O                     1.92262  -0.31723   0.05045 
 C                     3.26476  -0.53848  -0.38923 
 O                     1.5356    0.87147  -1.88384 
 F                     0.75567  -2.31915   1.24999 
 O                     0.14455  -2.39422  -1.10985 
 H                    -2.85984  -0.97592   1.20217 
 H                    -3.70207   1.34149   1.1957 
 H                    -2.33083   3.16896   0.22826 
 H                    -0.09604   2.68131  -0.71473 
 H                     3.27398  -1.08743  -1.33619 
 H                     3.79552   0.41365  -0.48638 
 H                     3.77227  -1.14399   0.36668 
 

 GradGradGradGradGradGradGradGradGradGradGradGradGradGradGradGradGradGrad
 Berny optimization.
 Initialization pass.
                           ----------------------------
                           !    Initial Parameters    !
                           ! (Angstroms and Degrees)  !
 --------------------------                            --------------------------
 ! Name  Definition              Value          Derivative Info.                !
 --------------------------------------------------------------------------------
 ! R1    R(1,2)                  1.4506         calculate D2E/DX2 analytically  !
 ! R2    R(2,3)                  1.7699         calculate D2E/DX2 analytically  !
 ! R3    R(2,13)                 1.5899         calculate D2E/DX2 analytically  !
 ! R4    R(2,14)                 1.4483         calculate D2E/DX2 analytically  !
 ! R5    R(3,4)                  1.4036         calculate D2E/DX2 analytically  !
 ! R6    R(3,8)                  1.3989         calculate D2E/DX2 analytically  !
 ! R7    R(4,5)                  1.3958         calculate D2E/DX2 analytically  !
 ! R8    R(4,15)                 1.0893         calculate D2E/DX2 analytically  !
 ! R9    R(5,6)                  1.3933         calculate D2E/DX2 analytically  !
 ! R10   R(5,16)                 1.0884         calculate D2E/DX2 analytically  !
 ! R11   R(6,7)                  1.3957         calculate D2E/DX2 analytically  !
 ! R12   R(6,17)                 1.0881         calculate D2E/DX2 analytically  !
 ! R13   R(7,8)                  1.4038         calculate D2E/DX2 analytically  !
 ! R14   R(7,18)                 1.0896         calculate D2E/DX2 analytically  !
 ! R15   R(8,9)                  1.4761         calculate D2E/DX2 analytically  !
 ! R16   R(9,10)                 1.3523         calculate D2E/DX2 analytically  !
 ! R17   R(9,12)                 1.2179         calculate D2E/DX2 analytically  !
 ! R18   R(10,11)                1.4295         calculate D2E/DX2 analytically  !
 ! R19   R(11,19)                1.0946         calculate D2E/DX2 analytically  !
 ! R20   R(11,20)                1.0944         calculate D2E/DX2 analytically  !
 ! R21   R(11,21)                1.0934         calculate D2E/DX2 analytically  !
 ! A1    A(1,2,3)              107.9637         calculate D2E/DX2 analytically  !
 ! A2    A(1,2,13)             104.8175         calculate D2E/DX2 analytically  !
 ! A3    A(1,2,14)             120.9676         calculate D2E/DX2 analytically  !
 ! A4    A(3,2,13)             107.3818         calculate D2E/DX2 analytically  !
 ! A5    A(3,2,14)             108.2951         calculate D2E/DX2 analytically  !
 ! A6    A(13,2,14)            106.6914         calculate D2E/DX2 analytically  !
 ! A7    A(2,3,4)              118.6921         calculate D2E/DX2 analytically  !
 ! A8    A(2,3,8)              121.1453         calculate D2E/DX2 analytically  !
 ! A9    A(4,3,8)              120.0379         calculate D2E/DX2 analytically  !
 ! A10   A(3,4,5)              120.0683         calculate D2E/DX2 analytically  !
 ! A11   A(3,4,15)             121.0607         calculate D2E/DX2 analytically  !
 ! A12   A(5,4,15)             118.8654         calculate D2E/DX2 analytically  !
 ! A13   A(4,5,6)              120.0705         calculate D2E/DX2 analytically  !
 ! A14   A(4,5,16)             119.9898         calculate D2E/DX2 analytically  !
 ! A15   A(6,5,16)             119.9332         calculate D2E/DX2 analytically  !
 ! A16   A(5,6,7)              119.9971         calculate D2E/DX2 analytically  !
 ! A17   A(5,6,17)             120.0424         calculate D2E/DX2 analytically  !
 ! A18   A(7,6,17)             119.9595         calculate D2E/DX2 analytically  !
 ! A19   A(6,7,8)              120.4262         calculate D2E/DX2 analytically  !
 ! A20   A(6,7,18)             119.4078         calculate D2E/DX2 analytically  !
 ! A21   A(8,7,18)             120.166          calculate D2E/DX2 analytically  !
 ! A22   A(3,8,7)              119.3879         calculate D2E/DX2 analytically  !
 ! A23   A(3,8,9)              124.3249         calculate D2E/DX2 analytically  !
 ! A24   A(7,8,9)              116.2859         calculate D2E/DX2 analytically  !
 ! A25   A(8,9,10)             108.8242         calculate D2E/DX2 analytically  !
 ! A26   A(8,9,12)             123.7224         calculate D2E/DX2 analytically  !
 ! A27   A(10,9,12)            127.2147         calculate D2E/DX2 analytically  !
 ! A28   A(9,10,11)            113.6548         calculate D2E/DX2 analytically  !
 ! A29   A(10,11,19)           110.5855         calculate D2E/DX2 analytically  !
 ! A30   A(10,11,20)           110.3642         calculate D2E/DX2 analytically  !
 ! A31   A(10,11,21)           107.9892         calculate D2E/DX2 analytically  !
 ! A32   A(19,11,20)           110.8201         calculate D2E/DX2 analytically  !
 ! A33   A(19,11,21)           108.4471         calculate D2E/DX2 analytically  !
 ! A34   A(20,11,21)           108.5453         calculate D2E/DX2 analytically  !
 ! D1    D(1,2,3,4)              1.3935         calculate D2E/DX2 analytically  !
 ! D2    D(1,2,3,8)           -174.5488         calculate D2E/DX2 analytically  !
 ! D3    D(13,2,3,4)          -111.1387         calculate D2E/DX2 analytically  !
 ! D4    D(13,2,3,8)            72.919          calculate D2E/DX2 analytically  !
 ! D5    D(14,2,3,4)           133.9965         calculate D2E/DX2 analytically  !
 ! D6    D(14,2,3,8)           -41.9458         calculate D2E/DX2 analytically  !
 ! D7    D(2,3,4,5)           -176.0568         calculate D2E/DX2 analytically  !
 ! D8    D(2,3,4,15)             3.0695         calculate D2E/DX2 analytically  !
 ! D9    D(8,3,4,5)             -0.0684         calculate D2E/DX2 analytically  !
 ! D10   D(8,3,4,15)           179.058          calculate D2E/DX2 analytically  !
 ! D11   D(2,3,8,7)            174.988          calculate D2E/DX2 analytically  !
 ! D12   D(2,3,8,9)             -4.5791         calculate D2E/DX2 analytically  !
 ! D13   D(4,3,8,7)             -0.9002         calculate D2E/DX2 analytically  !
 ! D14   D(4,3,8,9)            179.5327         calculate D2E/DX2 analytically  !
 ! D15   D(3,4,5,6)              0.7546         calculate D2E/DX2 analytically  !
 ! D16   D(3,4,5,16)           179.8278         calculate D2E/DX2 analytically  !
 ! D17   D(15,4,5,6)          -178.3908         calculate D2E/DX2 analytically  !
 ! D18   D(15,4,5,16)            0.6824         calculate D2E/DX2 analytically  !
 ! D19   D(4,5,6,7)             -0.4602         calculate D2E/DX2 analytically  !
 ! D20   D(4,5,6,17)           179.1802         calculate D2E/DX2 analytically  !
 ! D21   D(16,5,6,7)          -179.5339         calculate D2E/DX2 analytically  !
 ! D22   D(16,5,6,17)            0.1065         calculate D2E/DX2 analytically  !
 ! D23   D(5,6,7,8)             -0.5213         calculate D2E/DX2 analytically  !
 ! D24   D(5,6,7,18)           179.547          calculate D2E/DX2 analytically  !
 ! D25   D(17,6,7,8)           179.838          calculate D2E/DX2 analytically  !
 ! D26   D(17,6,7,18)           -0.0937         calculate D2E/DX2 analytically  !
 ! D27   D(6,7,8,3)              1.1985         calculate D2E/DX2 analytically  !
 ! D28   D(6,7,8,9)           -179.2002         calculate D2E/DX2 analytically  !
 ! D29   D(18,7,8,3)          -178.8703         calculate D2E/DX2 analytically  !
 ! D30   D(18,7,8,9)             0.731          calculate D2E/DX2 analytically  !
 ! D31   D(3,8,9,10)           -50.4563         calculate D2E/DX2 analytically  !
 ! D32   D(3,8,9,12)           134.8012         calculate D2E/DX2 analytically  !
 ! D33   D(7,8,9,10)           129.9643         calculate D2E/DX2 analytically  !
 ! D34   D(7,8,9,12)           -44.7782         calculate D2E/DX2 analytically  !
 ! D35   D(8,9,10,11)         -178.9837         calculate D2E/DX2 analytically  !
 ! D36   D(12,9,10,11)          -4.4754         calculate D2E/DX2 analytically  !
 ! D37   D(9,10,11,19)         -58.7454         calculate D2E/DX2 analytically  !
 ! D38   D(9,10,11,20)          64.2384         calculate D2E/DX2 analytically  !
 ! D39   D(9,10,11,21)        -177.2573         calculate D2E/DX2 analytically  !
 --------------------------------------------------------------------------------
 Trust Radius=3.00D-01 FncErr=1.00D-07 GrdErr=1.00D-06 EigMax=2.50D+02 EigMin=1.00D-04
 Number of steps in this run=    104 maximum allowed number of steps=    126.
 GradGradGradGradGradGradGradGradGradGradGradGradGradGradGradGradGradGrad

                          Input orientation:                          
 ---------------------------------------------------------------------
 Center     Atomic      Atomic             Coordinates (Angstroms)
 Number     Number       Type             X           Y           Z
 ---------------------------------------------------------------------
      1          8           0       -1.498166   -2.983988    0.711565
      2         16           0       -0.425767   -2.152248    0.199236
      3          6           0       -0.961281   -0.466744    0.269055
      4          6           0       -2.231247   -0.184425    0.796018
      5          6           0       -2.716001    1.124462    0.789316
      6          6           0       -1.946905    2.150979    0.245316
      7          6           0       -0.686238    1.872516   -0.285013
      8          6           0       -0.179947    0.563385   -0.265073
      9          6           0        1.169348    0.375599   -0.833457
     10          8           0        1.922622   -0.317234    0.050452
     11          6           0        3.264760   -0.538475   -0.389228
     12          8           0        1.535599    0.871475   -1.883845
     13          9           0        0.755675   -2.319153    1.249991
     14          8           0        0.144550   -2.394222   -1.109851
     15          1           0       -2.859836   -0.975916    1.202174
     16          1           0       -3.702070    1.341491    1.195704
     17          1           0       -2.330826    3.168961    0.228264
     18          1           0       -0.096040    2.681313   -0.714733
     19          1           0        3.273982   -1.087434   -1.336192
     20          1           0        3.795520    0.413649   -0.486375
     21          1           0        3.772265   -1.143991    0.366677
 ---------------------------------------------------------------------
                    Distance matrix (angstroms):
                    1          2          3          4          5
     1  O    0.000000
     2  S    1.450625   0.000000
     3  C    2.611624   1.769908   0.000000
     4  C    2.895185   2.736464   1.403641   0.000000
     5  C    4.285853   4.041064   2.425212   1.395786   0.000000
     6  C    5.175581   4.564400   2.797229   2.416243   1.393262
     7  C    5.023747   4.062151   2.419665   2.790463   2.415306
     8  C    3.908373   2.765985   1.398907   2.427542   2.803232
     9  C    4.559556   3.162413   2.542568   3.812199   4.276695
    10  O    4.387532   2.984015   2.896038   4.222337   4.913373
    11  C    5.466054   4.070693   4.277605   5.633494   6.318531
    12  O    5.550178   4.162822   3.558120   4.741910   5.028508
    13  F    2.410748   1.589889   2.709537   3.699305   4.911542
    14  O    2.522676   1.448282   2.615227   3.762970   4.916373
    15  H    2.475318   2.883459   2.175886   1.089287   2.145398
    16  H    4.878664   4.892170   3.411791   2.156731   1.088387
    17  H    6.227816   5.652023   3.885315   3.402567   2.154789
    18  H    6.007989   4.930251   3.409802   3.879940   3.398550
    19  H    5.528438   4.144817   4.571600   5.972377   6.729797
    20  H    6.403288   4.987299   4.896214   6.190649   6.673271
    21  H    5.593030   4.320659   4.782745   6.094855   6.886371
                    6          7          8          9         10
     6  C    0.000000
     7  C    1.395733   0.000000
     8  C    2.429627   1.403764   0.000000
     9  C    3.745231   2.446376   1.476118   0.000000
    10  O    4.593831   3.422528   2.301270   1.352307   0.000000
    11  C    5.898920   4.629701   3.618774   2.328867   1.429546
    12  O    4.277650   2.914603   2.378748   1.217927   2.303111
    13  F    5.319341   4.690996   3.388190   3.431264   2.609279
    14  O    5.183580   4.424434   3.092958   2.966229   2.970138
    15  H    3.395069   3.879410   3.421121   4.712188   4.963087
    16  H    2.153860   3.401433   3.891615   5.364807   5.974959
    17  H    1.088106   2.156129   3.414482   4.602319   5.502454
    18  H    2.151430   1.089563   2.166761   2.632797   3.694833
    19  H    6.343985   5.054664   3.975189   2.612028   2.083786
    20  H    6.043933   4.717520   3.984437   2.649281   2.080894
    21  H    6.601550   5.422386   4.351348   3.244172   2.050538
                   11         12         13         14         15
    11  C    0.000000
    12  O    2.685486   0.000000
    13  F    3.486168   4.539748   0.000000
    14  O    3.701190   3.633023   2.438844   0.000000
    15  H    6.343075   5.679456   3.857265   4.047640   0.000000
    16  H    7.388031   6.094072   5.768427   5.836747   2.465720
    17  H    6.740695   4.968772   6.378857   6.234344   4.290497
    18  H    4.665616   2.702699   5.439690   5.096573   4.968746
    19  H    1.094614   2.675672   3.814098   3.398863   6.639237
    20  H    1.094387   2.696250   4.441152   4.647842   7.005416
    21  H    1.093437   3.758939   3.355752   4.111390   6.686634
                   16         17         18         19         20
    16  H    0.000000
    17  H    2.481108   0.000000
    18  H    4.295154   2.474129   0.000000
    19  H    7.808680   7.209598   5.093792   0.000000
    20  H    7.739776   6.755337   4.509843   1.802065   0.000000
    21  H    7.920265   7.474520   5.546728   1.775175   1.776086
                   21
    21  H    0.000000
 Stoichiometry    C8H7FO4S
 Framework group  C1[X(C8H7FO4S)]
 Deg. of freedom    57
 Full point group                 C1      NOp   1
 Largest Abelian subgroup         C1      NOp   1
 Largest concise Abelian subgroup C1      NOp   1
                         Standard orientation:                         
 ---------------------------------------------------------------------
 Center     Atomic      Atomic             Coordinates (Angstroms)
 Number     Number       Type             X           Y           Z
 ---------------------------------------------------------------------
      1          8           0       -0.269340    2.907066    0.210566
      2         16           0        0.380348    1.610087    0.218436
      3          6           0       -0.865563    0.374059   -0.010724
      4          6           0       -2.196660    0.783388   -0.186326
      5          6           0       -3.213290   -0.167685   -0.287020
      6          6           0       -2.910993   -1.524821   -0.197699
      7          6           0       -1.589154   -1.934871   -0.016952
      8          6           0       -0.556014   -0.988063    0.065077
      9          6           0        0.808774   -1.523109    0.238285
     10          8           0        1.621394   -0.950987   -0.678809
     11          6           0        2.971940   -1.415636   -0.617746
     12          8           0        1.092223   -2.412126    1.021005
     13          9           0        1.297272    1.606747   -1.080404
     14          8           0        1.223862    1.205834    1.324141
     15          1           0       -2.458384    1.839765   -0.232323
     16          1           0       -4.245335    0.151207   -0.420355
     17          1           0       -3.705563   -2.265351   -0.262896
     18          1           0       -1.364535   -2.998315    0.059075
     19          1           0        3.400290   -1.224713    0.371317
     20          1           0        3.019588   -2.481074   -0.863212
     21          1           0        3.553573   -0.861504   -1.359529
 ---------------------------------------------------------------------
 Rotational constants (GHZ):           0.7716820           0.6974312           0.4189995
 Standard basis: 6-31G(d) (6D, 7F)
 There are   228 symmetry adapted cartesian basis functions of A   symmetry.
 There are   228 symmetry adapted basis functions of A   symmetry.
   228 basis functions,   444 primitive gaussians,   228 cartesian basis functions
    56 alpha electrons       56 beta electrons
       nuclear repulsion energy      1089.2008622005 Hartrees.
 NAtoms=   21 NActive=   21 NUniq=   21 SFac= 1.00D+00 NAtFMM=   60 NAOKFM=F Big=F
 Integral buffers will be    131072 words long.
 Raffenetti 2 integral format.
 Two-electron integral symmetry is turned on.
 R6APFD:  NTU= -4 IXU= 1 FactS= 1.050
 Nuclear repulsion after empirical dispersion term =     1089.1773739922 Hartrees.
 One-electron integrals computed using PRISM.
 NBasis=   228 RedAO= T EigKep=  4.51D-04  NBF=   228
 NBsUse=   228 1.00D-06 EigRej= -1.00D+00 NBFU=   228
 ExpMin= 1.17D-01 ExpMax= 2.19D+04 ExpMxC= 3.30D+03 IAcc=3 IRadAn=         5 AccDes= 0.00D+00
 Harris functional with IExCor= 3731 and IRadAn=       5 diagonalized for initial guess.
 HarFok:  IExCor= 3731 AccDes= 0.00D+00 IRadAn=         5 IDoV= 1 UseB2=F ITyADJ=14
 ICtDFT=  3500011 ScaDFX=  1.000000  1.000000  1.000000  1.000000
 FoFCou: FMM=F IPFlag=           0 FMFlag=      100000 FMFlg1=           0
         NFxFlg=           0 DoJE=T BraDBF=F KetDBF=T FulRan=T
         wScrn=  0.000000 ICntrl=       500 IOpCl=  0 I1Cent=   200000004 NGrid=           0
         NMat0=    1 NMatS0=      1 NMatT0=    0 NMatD0=    1 NMtDS0=    0 NMtDT0=    0
 Petite list used in FoFCou.
 Keep R1 ints in memory in canonical form, NReq=346780514.
 Requested convergence on RMS density matrix=1.00D-08 within  32 cycles.
 Requested convergence on MAX density matrix=1.00D-06.
 Requested convergence on             energy=1.00D-06.
 No special actions if energy rises.
 Integral accuracy reduced to 1.0D-05 until final iterations.
 Initial convergence to 1.0D-05 achieved.  Increase integral accuracy.
 SCF Done:  E(RAPFD) =  -1107.28317592     A.U. after   15 cycles
            NFock= 15  Conv=0.96D-08     -V/T= 2.0067
 QCSCF skips out because SCF is already converged.
 DoSCS=F DFT=T ScalE2(SS,OS)=  1.000000  1.000000
 Range of M.O.s used for correlation:     1   228
 NBasis=   228 NAE=    56 NBE=    56 NFC=     0 NFV=     0
 NROrb=    228 NOA=    56 NOB=    56 NVA=   172 NVB=   172

 **** Warning!!: The largest alpha MO coefficient is  0.10422807D+02

 R6APFD:  NTU= -4 IXU= 1 FactS= 1.050
 Symmetrizing basis deriv contribution to polar:
 IMax=3 JMax=2 DiffMx= 0.00D+00
 G2DrvN: will do    22 centers at a time, making    1 passes.
 Calling FoFCou, ICntrl=  3107 FMM=F I1Cent=   0 AccDes= 0.00D+00.
 End of G2Drv F.D. properties file   721 does not exist.
 End of G2Drv F.D. properties file   722 does not exist.
 End of G2Drv F.D. properties file   788 does not exist.
          IDoAtm=111111111111111111111
          Differentiating once with respect to nuclear coordinates.
 Keep R1 ints in memory in canonical form, NReq=346789278.
          There are    66 degrees of freedom in the 1st order CPHF.  IDoFFX=6 NUNeed=     0.
     60 vectors produced by pass  0 Test12= 1.46D-14 1.52D-09 XBig12= 1.84D-01 1.33D-01.
 AX will form    60 AO Fock derivatives at one time.
     60 vectors produced by pass  1 Test12= 1.46D-14 1.52D-09 XBig12= 2.56D-02 4.30D-02.
     60 vectors produced by pass  2 Test12= 1.46D-14 1.52D-09 XBig12= 4.85D-04 3.79D-03.
     60 vectors produced by pass  3 Test12= 1.46D-14 1.52D-09 XBig12= 4.19D-06 3.80D-04.
     60 vectors produced by pass  4 Test12= 1.46D-14 1.52D-09 XBig12= 1.80D-08 2.40D-05.
     57 vectors produced by pass  5 Test12= 1.46D-14 1.52D-09 XBig12= 3.19D-11 7.98D-07.
     19 vectors produced by pass  6 Test12= 1.46D-14 1.52D-09 XBig12= 4.23D-14 2.35D-08.
 InvSVY:  IOpt=1 It=  1 EMax= 5.00D-16
 Solved reduced A of dimension   376 with    66 vectors.
 End of Minotr F.D. properties file   721 does not exist.
 End of Minotr F.D. properties file   722 does not exist.
 End of Minotr F.D. properties file   788 does not exist.

 **********************************************************************

            Population analysis using the SCF density.

 **********************************************************************

 Orbital symmetries:
       Occupied  (A) (A) (A) (A) (A) (A) (A) (A) (A) (A) (A) (A)
                 (A) (A) (A) (A) (A) (A) (A) (A) (A) (A) (A) (A)
                 (A) (A) (A) (A) (A) (A) (A) (A) (A) (A) (A) (A)
                 (A) (A) (A) (A) (A) (A) (A) (A) (A) (A) (A) (A)
                 (A) (A) (A) (A) (A) (A) (A) (A)
       Virtual   (A) (A) (A) (A) (A) (A) (A) (A) (A) (A) (A) (A)
                 (A) (A) (A) (A) (A) (A) (A) (A) (A) (A) (A) (A)
                 (A) (A) (A) (A) (A) (A) (A) (A) (A) (A) (A) (A)
                 (A) (A) (A) (A) (A) (A) (A) (A) (A) (A) (A) (A)
                 (A) (A) (A) (A) (A) (A) (A) (A) (A) (A) (A) (A)
                 (A) (A) (A) (A) (A) (A) (A) (A) (A) (A) (A) (A)
                 (A) (A) (A) (A) (A) (A) (A) (A) (A) (A) (A) (A)
                 (A) (A) (A) (A) (A) (A) (A) (A) (A) (A) (A) (A)
                 (A) (A) (A) (A) (A) (A) (A) (A) (A) (A) (A) (A)
                 (A) (A) (A) (A) (A) (A) (A) (A) (A) (A) (A) (A)
                 (A) (A) (A) (A) (A) (A) (A) (A) (A) (A) (A) (A)
                 (A) (A) (A) (A) (A) (A) (A) (A) (A) (A) (A) (A)
                 (A) (A) (A) (A) (A) (A) (A) (A) (A) (A) (A) (A)
                 (A) (A) (A) (A) (A) (A) (A) (A) (A) (A) (A) (A)
                 (A) (A) (A) (A)
 The electronic state is 1-A.
 Alpha  occ. eigenvalues --  -89.23972 -24.79339 -19.25620 -19.21296 -19.21119
 Alpha  occ. eigenvalues --  -19.19757 -10.35935 -10.28974 -10.27279 -10.26889
 Alpha  occ. eigenvalues --  -10.26415 -10.25751 -10.25694 -10.25573  -8.21754
 Alpha  occ. eigenvalues --   -6.16702  -6.16340  -6.16271  -1.28733  -1.14003
 Alpha  occ. eigenvalues --   -1.13378  -1.05230  -1.05038  -0.92166  -0.82946
 Alpha  occ. eigenvalues --   -0.81484  -0.75556  -0.72059  -0.67001  -0.64953
 Alpha  occ. eigenvalues --   -0.61288  -0.58822  -0.55260  -0.53796  -0.52748
 Alpha  occ. eigenvalues --   -0.51456  -0.50497  -0.50207  -0.48844  -0.47727
 Alpha  occ. eigenvalues --   -0.46097  -0.45164  -0.44236  -0.42749  -0.41263
 Alpha  occ. eigenvalues --   -0.40348  -0.39792  -0.38841  -0.37647  -0.35115
 Alpha  occ. eigenvalues --   -0.34842  -0.33272  -0.32353  -0.31095  -0.30332
 Alpha  occ. eigenvalues --   -0.28897
 Alpha virt. eigenvalues --   -0.07440  -0.04780   0.01545   0.02440   0.07028
 Alpha virt. eigenvalues --    0.09544   0.09897   0.11417   0.12040   0.12864
 Alpha virt. eigenvalues --    0.14625   0.15807   0.16276   0.17037   0.17811
 Alpha virt. eigenvalues --    0.18225   0.23178   0.25552   0.27718   0.28370
 Alpha virt. eigenvalues --    0.31120   0.32160   0.33087   0.34763   0.37043
 Alpha virt. eigenvalues --    0.39068   0.42742   0.48022   0.50444   0.50888
 Alpha virt. eigenvalues --    0.51756   0.52960   0.54043   0.55281   0.56459
 Alpha virt. eigenvalues --    0.57783   0.58502   0.58605   0.59763   0.60733
 Alpha virt. eigenvalues --    0.61264   0.63624   0.65884   0.67155   0.67890
 Alpha virt. eigenvalues --    0.71012   0.72756   0.75449   0.77440   0.78706
 Alpha virt. eigenvalues --    0.81250   0.81745   0.82035   0.82929   0.83720
 Alpha virt. eigenvalues --    0.85013   0.86396   0.87114   0.89762   0.90665
 Alpha virt. eigenvalues --    0.91775   0.93099   0.94101   0.95796   0.97812
 Alpha virt. eigenvalues --    1.01000   1.01624   1.03235   1.04618   1.05780
 Alpha virt. eigenvalues --    1.07725   1.08746   1.10532   1.11538   1.12392
 Alpha virt. eigenvalues --    1.14253   1.16842   1.17349   1.21555   1.21952
 Alpha virt. eigenvalues --    1.23347   1.27701   1.29281   1.34103   1.35526
 Alpha virt. eigenvalues --    1.37574   1.39523   1.40613   1.42122   1.42644
 Alpha virt. eigenvalues --    1.44453   1.45916   1.47089   1.48068   1.52342
 Alpha virt. eigenvalues --    1.54578   1.62011   1.64477   1.66542   1.71584
 Alpha virt. eigenvalues --    1.73658   1.74988   1.75586   1.77971   1.79372
 Alpha virt. eigenvalues --    1.80317   1.81178   1.82342   1.83515   1.85134
 Alpha virt. eigenvalues --    1.86330   1.87220   1.87754   1.89760   1.91073
 Alpha virt. eigenvalues --    1.93730   1.94847   1.96525   1.97894   2.00438
 Alpha virt. eigenvalues --    2.02472   2.04671   2.08012   2.09908   2.10702
 Alpha virt. eigenvalues --    2.11803   2.12285   2.14308   2.15960   2.18188
 Alpha virt. eigenvalues --    2.23374   2.24720   2.26356   2.27634   2.30070
 Alpha virt. eigenvalues --    2.31461   2.33251   2.38271   2.42227   2.51530
 Alpha virt. eigenvalues --    2.56232   2.57765   2.60164   2.64080   2.65507
 Alpha virt. eigenvalues --    2.67645   2.70884   2.72395   2.75621   2.79773
 Alpha virt. eigenvalues --    2.80742   2.84331   2.86579   2.92065   2.98646
 Alpha virt. eigenvalues --    3.12865   3.16130   3.36625   3.79468   3.87547
 Alpha virt. eigenvalues --    3.98674   4.05478   4.07770   4.10736   4.14515
 Alpha virt. eigenvalues --    4.22574   4.26770   4.33231   4.40018   4.45635
 Alpha virt. eigenvalues --    4.70211   4.93609
          Condensed to atoms (all electrons):
               1          2          3          4          5          6
     1  O    8.149979   0.461222  -0.054548   0.000407   0.000778  -0.000015
     2  S    0.461222  13.458558   0.201205  -0.035728   0.002561  -0.000780
     3  C   -0.054548   0.201205   5.472205   0.494840  -0.044776  -0.039721
     4  C    0.000407  -0.035728   0.494840   4.985888   0.502692  -0.025091
     5  C    0.000778   0.002561  -0.044776   0.502692   4.906138   0.536755
     6  C   -0.000015  -0.000780  -0.039721  -0.025091   0.536755   4.907942
     7  C   -0.000025   0.003495  -0.042193  -0.044331  -0.040267   0.511841
     8  C    0.002675  -0.032248   0.395732  -0.031555  -0.023457  -0.030075
     9  C   -0.000003  -0.009379  -0.035500   0.005269   0.000223   0.006369
    10  O   -0.000015   0.010696  -0.000698   0.000029   0.000002  -0.000089
    11  C    0.000001  -0.000939  -0.000134   0.000010   0.000000   0.000003
    12  O   -0.000000  -0.000173   0.002041  -0.000058  -0.000006   0.000446
    13  F   -0.037588   0.207280  -0.027611  -0.000283  -0.000022   0.000000
    14  O   -0.042327   0.440069  -0.051181   0.000101  -0.000049  -0.000004
    15  H    0.008635  -0.004549  -0.031983   0.362602  -0.032631   0.003615
    16  H    0.000004  -0.000043   0.004283  -0.037854   0.370565  -0.037881
    17  H   -0.000000   0.000011   0.000732   0.004011  -0.037486   0.365826
    18  H    0.000000   0.000022   0.005305   0.000316   0.003764  -0.036901
    19  H    0.000000   0.000005  -0.000001  -0.000000   0.000000  -0.000000
    20  H    0.000000   0.000159  -0.000015   0.000000  -0.000000   0.000000
    21  H    0.000000  -0.000131  -0.000014  -0.000000   0.000000  -0.000000
               7          8          9         10         11         12
     1  O   -0.000025   0.002675  -0.000003  -0.000015   0.000001  -0.000000
     2  S    0.003495  -0.032248  -0.009379   0.010696  -0.000939  -0.000173
     3  C   -0.042193   0.395732  -0.035500  -0.000698  -0.000134   0.002041
     4  C   -0.044331  -0.031555   0.005269   0.000029   0.000010  -0.000058
     5  C   -0.040267  -0.023457   0.000223   0.000002   0.000000  -0.000006
     6  C    0.511841  -0.030075   0.006369  -0.000089   0.000003   0.000446
     7  C    4.944735   0.522809  -0.033429   0.000616  -0.000139   0.002355
     8  C    0.522809   4.982705   0.340066  -0.102674   0.008633  -0.076131
     9  C   -0.033429   0.340066   4.424136   0.236553  -0.022269   0.535264
    10  O    0.000616  -0.102674   0.236553   8.274284   0.192485  -0.071566
    11  C   -0.000139   0.008633  -0.022269   0.192485   4.983498   0.004657
    12  O    0.002355  -0.076131   0.535264  -0.071566   0.004657   8.056362
    13  F   -0.000025  -0.001795  -0.000902  -0.002896   0.000733   0.000000
    14  O    0.000189  -0.003009   0.009536  -0.004501   0.000175  -0.000587
    15  H    0.000519   0.003354  -0.000092   0.000000  -0.000000   0.000000
    16  H    0.003883   0.000613   0.000005   0.000000   0.000000  -0.000000
    17  H   -0.034593   0.003579  -0.000142   0.000001  -0.000000   0.000001
    18  H    0.365843  -0.038750  -0.005817   0.000254  -0.000035   0.005846
    19  H   -0.000030   0.000143  -0.005132  -0.029452   0.377072   0.004058
    20  H    0.000082  -0.000375  -0.006677  -0.030388   0.377292   0.004633
    21  H   -0.000000  -0.000043   0.005069  -0.029081   0.377261   0.000521
              13         14         15         16         17         18
     1  O   -0.037588  -0.042327   0.008635   0.000004  -0.000000   0.000000
     2  S    0.207280   0.440069  -0.004549  -0.000043   0.000011   0.000022
     3  C   -0.027611  -0.051181  -0.031983   0.004283   0.000732   0.005305
     4  C   -0.000283   0.000101   0.362602  -0.037854   0.004011   0.000316
     5  C   -0.000022  -0.000049  -0.032631   0.370565  -0.037486   0.003764
     6  C    0.000000  -0.000004   0.003615  -0.037881   0.365826  -0.036901
     7  C   -0.000025   0.000189   0.000519   0.003883  -0.034593   0.365843
     8  C   -0.001795  -0.003009   0.003354   0.000613   0.003579  -0.038750
     9  C   -0.000902   0.009536  -0.000092   0.000005  -0.000142  -0.005817
    10  O   -0.002896  -0.004501   0.000000   0.000000   0.000001   0.000254
    11  C    0.000733   0.000175  -0.000000   0.000000  -0.000000  -0.000035
    12  O    0.000000  -0.000587   0.000000  -0.000000   0.000001   0.005846
    13  F    9.176213  -0.032712   0.000008   0.000000  -0.000000   0.000000
    14  O   -0.032712   8.180647   0.000035   0.000000  -0.000000   0.000002
    15  H    0.000008   0.000035   0.463190  -0.004160  -0.000131   0.000012
    16  H    0.000000   0.000000  -0.004160   0.508965  -0.004079  -0.000142
    17  H   -0.000000  -0.000000  -0.000131  -0.004079   0.510956  -0.003828
    18  H    0.000000   0.000002   0.000012  -0.000142  -0.003828   0.492556
    19  H   -0.000037   0.000905  -0.000000   0.000000  -0.000000  -0.000002
    20  H   -0.000004   0.000000  -0.000000   0.000000   0.000000   0.000004
    21  H    0.000369  -0.000008  -0.000000  -0.000000   0.000000   0.000000
              19         20         21
     1  O    0.000000   0.000000   0.000000
     2  S    0.000005   0.000159  -0.000131
     3  C   -0.000001  -0.000015  -0.000014
     4  C   -0.000000   0.000000  -0.000000
     5  C    0.000000  -0.000000   0.000000
     6  C   -0.000000   0.000000  -0.000000
     7  C   -0.000030   0.000082  -0.000000
     8  C    0.000143  -0.000375  -0.000043
     9  C   -0.005132  -0.006677   0.005069
    10  O   -0.029452  -0.030388  -0.029081
    11  C    0.377072   0.377292   0.377261
    12  O    0.004058   0.004633   0.000521
    13  F   -0.000037  -0.000004   0.000369
    14  O    0.000905   0.000000  -0.000008
    15  H   -0.000000  -0.000000  -0.000000
    16  H    0.000000   0.000000  -0.000000
    17  H   -0.000000   0.000000   0.000000
    18  H   -0.000002   0.000004   0.000000
    19  H    0.502782  -0.031579  -0.029272
    20  H   -0.031579   0.523478  -0.031570
    21  H   -0.029272  -0.031570   0.507535
 Mulliken charges:
               1
     1  O   -0.489182
     2  S    1.298687
     3  C   -0.247969
     4  C   -0.181266
     5  C   -0.144787
     6  C   -0.162241
     7  C   -0.161333
     8  C    0.079803
     9  C    0.556852
    10  O   -0.443560
    11  C   -0.298302
    12  O   -0.467663
    13  F   -0.280731
    14  O   -0.497282
    15  H    0.231577
    16  H    0.195840
    17  H    0.195143
    18  H    0.211551
    19  H    0.210540
    20  H    0.194958
    21  H    0.199363
 Sum of Mulliken charges =  -0.00000
 Mulliken charges with hydrogens summed into heavy atoms:
               1
     1  O   -0.489182
     2  S    1.298687
     3  C   -0.247969
     4  C    0.050312
     5  C    0.051053
     6  C    0.032902
     7  C    0.050218
     8  C    0.079803
     9  C    0.556852
    10  O   -0.443560
    11  C    0.306560
    12  O   -0.467663
    13  F   -0.280731
    14  O   -0.497282
 APT charges:
               1
     1  O    0.103311
     2  S    0.208762
     3  C   -0.456450
     4  C   -0.586634
     5  C   -0.505793
     6  C   -0.464317
     7  C   -0.545345
     8  C   -0.361513
     9  C   -0.228711
    10  O   -0.253793
    11  C   -1.454972
    12  O    0.223909
    13  F   -0.094495
    14  O   -0.257494
    15  H    0.622945
    16  H    0.849380
    17  H    0.866378
    18  H    0.638788
    19  H    0.453072
    20  H    0.625960
    21  H    0.617015
 Sum of APT charges =  -0.00000
 APT charges with hydrogens summed into heavy atoms:
               1
     1  O    0.103311
     2  S    0.208762
     3  C   -0.456450
     4  C    0.036311
     5  C    0.343587
     6  C    0.402061
     7  C    0.093443
     8  C   -0.361513
     9  C   -0.228711
    10  O   -0.253793
    11  C    0.241074
    12  O    0.223909
    13  F   -0.094495
    14  O   -0.257494
 Electronic spatial extent (au):  <R**2>=           2664.4564
 Charge=             -0.0000 electrons
 Dipole moment (field-independent basis, Debye):
    X=             -2.7299    Y=             -2.7089    Z=             -2.7875  Tot=              4.7498
 Quadrupole moment (field-independent basis, Debye-Ang):
   XX=            -65.8221   YY=            -91.2267   ZZ=            -90.3951
   XY=              0.4550   XZ=             -3.1721   YZ=              2.5958
 Traceless Quadrupole moment (field-independent basis, Debye-Ang):
   XX=             16.6592   YY=             -8.7454   ZZ=             -7.9138
   XY=              0.4550   XZ=             -3.1721   YZ=              2.5958
 Octapole moment (field-independent basis, Debye-Ang**2):
  XXX=              9.7450  YYY=            -11.4094  ZZZ=             -5.7795  XYY=             -5.0657
  XXY=            -10.8452  XXZ=            -15.8251  XZZ=             11.2326  YZZ=              9.2595
  YYZ=            -16.8272  XYZ=              5.0810
 Hexadecapole moment (field-independent basis, Debye-Ang**3):
 XXXX=          -1413.0465 YYYY=          -1429.4761 ZZZZ=           -258.6744 XXXY=            -16.2006
 XXXZ=             -9.9637 YYYX=             48.1868 YYYZ=             14.9659 ZZZX=            -18.4142
 ZZZY=            -10.2058 XXYY=           -457.0638 XXZZ=           -338.9036 YYZZ=           -286.4031
 XXYZ=              7.3785 YYXZ=            -18.3636 ZZXY=             -5.5106
 N-N= 1.089177373992D+03 E-N=-4.784126865663D+03  KE= 1.099884027110D+03
  Exact polarizability:   0.000   0.000   0.000   0.000   0.000   0.000
 Approx polarizability: 201.595  -3.606 195.322  14.181 -16.349 104.365
 R6APFD:  NTU= -4 IXU= 1 FactS= 1.050
 Calling FoFJK, ICntrl=    100147 FMM=F ISym2X=0 I1Cent= 0 IOpClX= 0 NMat=1 NMatS=1 NMatT=0.
 ***** Axes restored to original set *****
 -------------------------------------------------------------------
 Center     Atomic                   Forces (Hartrees/Bohr)
 Number     Number              X              Y              Z
 -------------------------------------------------------------------
      1        8           0.004313234    0.004010805    0.000404471
      2       16          -0.020474749   -0.016942453   -0.014963255
      3        6          -0.001354849    0.011625242    0.011694721
      4        6          -0.000328738   -0.003734789    0.001429575
      5        6           0.002378666   -0.001416669   -0.002107785
      6        6           0.002850386   -0.001834830   -0.000367760
      7        6          -0.004549288   -0.002578959    0.000780025
      8        6          -0.010459848    0.011403659   -0.002184566
      9        6           0.012545314    0.004779552   -0.005682911
     10        8           0.004132020    0.007140992   -0.016053521
     11        6           0.007027683   -0.005155660    0.001106383
     12        8          -0.001056481   -0.010531500    0.018821254
     13        9           0.001726798    0.005242409    0.006164023
     14        8           0.003972450    0.002237199    0.004528949
     15        1           0.005011813   -0.001123844   -0.001829489
     16        1           0.001200209   -0.001706000   -0.000175144
     17        1           0.000893469   -0.000692066    0.000041604
     18        1           0.001195506   -0.004843270   -0.000229280
     19        1          -0.001043407    0.003491413   -0.000364316
     20        1          -0.001908655   -0.000287246   -0.003094762
     21        1          -0.006071536    0.000916015    0.002081783
 -------------------------------------------------------------------
 Cartesian Forces:  Max     0.020474749 RMS     0.006751111
 FormGI is forming the generalized inverse of G from B-inverse, IUseBI=4.

 GradGradGradGradGradGradGradGradGradGradGradGradGradGradGradGradGradGrad
 Berny optimization.
 Internal  Forces:  Max     0.020837816 RMS     0.005199571
 Search for a local minimum.
 Step number   1 out of a maximum of  104
 All quantities printed in internal units (Hartrees-Bohrs-Radians)
 Mixed Optimization -- RFO/linear search
 Second derivative matrix not updated -- analytic derivatives used.
 ITU=  0
     Eigenvalues ---    0.00197   0.00410   0.00799   0.01412   0.01662
     Eigenvalues ---    0.01749   0.01857   0.02202   0.02428   0.02567
     Eigenvalues ---    0.02650   0.02744   0.03076   0.06538   0.08548
     Eigenvalues ---    0.08964   0.11362   0.11794   0.12447   0.12535
     Eigenvalues ---    0.12858   0.13977   0.15561   0.16265   0.17077
     Eigenvalues ---    0.17128   0.18101   0.18155   0.18661   0.19206
     Eigenvalues ---    0.20068   0.22640   0.23928   0.24810   0.25140
     Eigenvalues ---    0.27846   0.32011   0.34114   0.34283   0.35006
     Eigenvalues ---    0.35213   0.36179   0.36295   0.36393   0.36484
     Eigenvalues ---    0.36545   0.38465   0.41318   0.43399   0.46912
     Eigenvalues ---    0.47071   0.47641   0.51012   0.66755   0.67604
     Eigenvalues ---    0.71420   0.83993
 RFO step:  Lambda=-1.07168429D-02 EMin= 1.97425825D-03
 Linear search not attempted -- first point.
 Iteration  1 RMS(Cart)=  0.11874519 RMS(Int)=  0.00584845
 Iteration  2 RMS(Cart)=  0.00909266 RMS(Int)=  0.00028983
 Iteration  3 RMS(Cart)=  0.00004369 RMS(Int)=  0.00028897
 Iteration  4 RMS(Cart)=  0.00000002 RMS(Int)=  0.00028897
 Variable       Old X    -DE/DX   Delta X   Delta X   Delta X     New X
                                 (Linear)    (Quad)   (Total)
    R1        2.74128  -0.00535   0.00000  -0.01063  -0.01063   2.73065
    R2        3.34464   0.00218   0.00000   0.01036   0.01036   3.35500
    R3        3.00445   0.00481   0.00000   0.01945   0.01945   3.02390
    R4        2.73686  -0.00290   0.00000  -0.00764  -0.00764   2.72921
    R5        2.65250  -0.01076   0.00000  -0.02133  -0.02132   2.63117
    R6        2.64355   0.00530   0.00000   0.00615   0.00619   2.64974
    R7        2.63765  -0.00485   0.00000  -0.00602  -0.00605   2.63160
    R8        2.05845  -0.00276   0.00000  -0.00761  -0.00761   2.05084
    R9        2.63288  -0.00003   0.00000  -0.00164  -0.00167   2.63121
   R10        2.05675  -0.00149   0.00000  -0.00366  -0.00366   2.05309
   R11        2.63755  -0.00335   0.00000  -0.00589  -0.00589   2.63166
   R12        2.05622  -0.00096   0.00000  -0.00253  -0.00253   2.05370
   R13        2.65273  -0.00872   0.00000  -0.01900  -0.01897   2.63376
   R14        2.05898  -0.00286   0.00000  -0.00680  -0.00680   2.05218
   R15        2.78946   0.01364   0.00000   0.03432   0.03432   2.82378
   R16        2.55549  -0.01261   0.00000  -0.03918  -0.03918   2.51631
   R17        2.30155  -0.02084   0.00000  -0.01767  -0.01767   2.28388
   R18        2.70145  -0.00163   0.00000  -0.00283  -0.00283   2.69863
   R19        2.06852  -0.00144   0.00000  -0.00428  -0.00428   2.06424
   R20        2.06809  -0.00090   0.00000  -0.00298  -0.00298   2.06511
   R21        2.06630  -0.00189   0.00000  -0.00790  -0.00790   2.05840
    A1        1.88432   0.00109   0.00000   0.02012   0.01903   1.90335
    A2        1.82941   0.00239   0.00000   0.00856   0.00820   1.83761
    A3        2.11128   0.00457   0.00000   0.01525   0.01373   2.12502
    A4        1.87417  -0.01721   0.00000  -0.11321  -0.11316   1.76101
    A5        1.89011   0.00320   0.00000   0.03731   0.03648   1.92659
    A6        1.86212   0.00264   0.00000   0.01000   0.01044   1.87256
    A7        2.07157  -0.01403   0.00000  -0.04636  -0.04640   2.02517
    A8        2.11438   0.00920   0.00000   0.02456   0.02446   2.13884
    A9        2.09506   0.00476   0.00000   0.02065   0.02064   2.11570
   A10        2.09559  -0.00196   0.00000  -0.00950  -0.00952   2.08606
   A11        2.11291  -0.00386   0.00000  -0.02771  -0.02771   2.08520
   A12        2.07459   0.00582   0.00000   0.03728   0.03729   2.11188
   A13        2.09562  -0.00016   0.00000  -0.00237  -0.00243   2.09320
   A14        2.09422  -0.00143   0.00000  -0.00586  -0.00583   2.08838
   A15        2.09323   0.00159   0.00000   0.00824   0.00827   2.10150
   A16        2.09434   0.00056   0.00000   0.00237   0.00233   2.09667
   A17        2.09514   0.00025   0.00000   0.00169   0.00170   2.09684
   A18        2.09369  -0.00081   0.00000  -0.00409  -0.00408   2.08961
   A19        2.10183   0.00105   0.00000   0.00663   0.00666   2.10849
   A20        2.08406   0.00366   0.00000   0.02587   0.02584   2.10990
   A21        2.09729  -0.00470   0.00000  -0.03249  -0.03251   2.06478
   A22        2.08371  -0.00425   0.00000  -0.01783  -0.01784   2.06587
   A23        2.16988   0.00544   0.00000   0.00852   0.00839   2.17827
   A24        2.02957  -0.00120   0.00000   0.00914   0.00900   2.03858
   A25        1.89934   0.01207   0.00000   0.04201   0.04161   1.94095
   A26        2.15936   0.00070   0.00000  -0.00885  -0.00924   2.15012
   A27        2.22032  -0.01247   0.00000  -0.02873  -0.02914   2.19118
   A28        1.98365   0.00673   0.00000   0.03057   0.03057   2.01423
   A29        1.93008  -0.00057   0.00000  -0.01300  -0.01316   1.91692
   A30        1.92622   0.00036   0.00000   0.00166   0.00158   1.92780
   A31        1.88477  -0.00793   0.00000  -0.04419  -0.04430   1.84047
   A32        1.93418  -0.00167   0.00000  -0.01745  -0.01759   1.91659
   A33        1.89276   0.00491   0.00000   0.03582   0.03560   1.92836
   A34        1.89447   0.00493   0.00000   0.03815   0.03813   1.93260
    D1        0.02432  -0.00278   0.00000   0.03665   0.03634   0.06066
    D2       -3.04645  -0.00182   0.00000   0.05458   0.05411  -2.99234
    D3       -1.93974   0.00223   0.00000   0.07170   0.07142  -1.86831
    D4        1.27268   0.00319   0.00000   0.08963   0.08920   1.36187
    D5        2.33868   0.00632   0.00000   0.09913   0.09995   2.43863
    D6       -0.73209   0.00728   0.00000   0.11706   0.11772  -0.61437
    D7       -3.07277   0.00029   0.00000   0.00224   0.00198  -3.07079
    D8        0.05357   0.00051   0.00000   0.00755   0.00724   0.06081
    D9       -0.00119  -0.00046   0.00000  -0.01528  -0.01533  -0.01652
   D10        3.12515  -0.00024   0.00000  -0.00997  -0.01007   3.11508
   D11        3.05412  -0.00132   0.00000  -0.01111  -0.01146   3.04266
   D12       -0.07992   0.00007   0.00000   0.01554   0.01513  -0.06479
   D13       -0.01571   0.00041   0.00000   0.00974   0.00987  -0.00584
   D14        3.13344   0.00180   0.00000   0.03639   0.03647  -3.11328
   D15        0.01317   0.00002   0.00000   0.00750   0.00737   0.02054
   D16        3.13859   0.00020   0.00000   0.00840   0.00835  -3.13624
   D17       -3.11351  -0.00011   0.00000   0.00285   0.00261  -3.11090
   D18        0.01191   0.00007   0.00000   0.00376   0.00359   0.01550
   D19       -0.00803   0.00046   0.00000   0.00578   0.00574  -0.00229
   D20        3.12728   0.00002   0.00000  -0.00028  -0.00029   3.12700
   D21       -3.13346   0.00030   0.00000   0.00501   0.00489  -3.12857
   D22        0.00186  -0.00013   0.00000  -0.00106  -0.00114   0.00072
   D23       -0.00910  -0.00057   0.00000  -0.01159  -0.01151  -0.02061
   D24        3.13369  -0.00092   0.00000  -0.01817  -0.01823   3.11546
   D25        3.13877  -0.00014   0.00000  -0.00555  -0.00552   3.13324
   D26       -0.00163  -0.00049   0.00000  -0.01213  -0.01225  -0.01388
   D27        0.02092   0.00006   0.00000   0.00354   0.00348   0.02440
   D28       -3.12763  -0.00120   0.00000  -0.02100  -0.02097   3.13458
   D29       -3.12188   0.00042   0.00000   0.01021   0.01007  -3.11181
   D30        0.01276  -0.00083   0.00000  -0.01433  -0.01438  -0.00163
   D31       -0.88063   0.00149   0.00000   0.08257   0.08256  -0.79807
   D32        2.35272  -0.00121   0.00000   0.03519   0.03488   2.38761
   D33        2.26831   0.00286   0.00000   0.10858   0.10888   2.37719
   D34       -0.78153   0.00016   0.00000   0.06120   0.06121  -0.72032
   D35       -3.12385  -0.00449   0.00000  -0.11480  -0.11453   3.04480
   D36       -0.07811  -0.00072   0.00000  -0.06376  -0.06403  -0.14214
   D37       -1.02530   0.00088   0.00000  -0.00325  -0.00318  -1.02848
   D38        1.12117  -0.00139   0.00000  -0.03319  -0.03310   1.08807
   D39       -3.09372   0.00003   0.00000  -0.01254  -0.01271  -3.10643
         Item               Value     Threshold  Converged?
 Maximum Force            0.020838     0.000450     NO 
 RMS     Force            0.005200     0.000300     NO 
 Maximum Displacement     0.417788     0.001800     NO 
 RMS     Displacement     0.119271     0.001200     NO 
 Predicted change in Energy=-6.019179D-03
 GradGradGradGradGradGradGradGradGradGradGradGradGradGradGradGradGradGrad

                          Input orientation:                          
 ---------------------------------------------------------------------
 Center     Atomic      Atomic             Coordinates (Angstroms)
 Number     Number       Type             X           Y           Z
 ---------------------------------------------------------------------
      1          8           0       -1.513682   -2.970115    0.652908
      2         16           0       -0.414944   -2.123913    0.247033
      3          6           0       -0.941173   -0.428924    0.292865
      4          6           0       -2.231997   -0.202295    0.763045
      5          6           0       -2.749896    1.090341    0.750282
      6          6           0       -1.985991    2.139890    0.246686
      7          6           0       -0.704094    1.899923   -0.241710
      8          6           0       -0.157514    0.618176   -0.212681
      9          6           0        1.220659    0.460652   -0.768284
     10          8           0        1.972416   -0.306774    0.018487
     11          6           0        3.270232   -0.618877   -0.489051
     12          8           0        1.593858    1.010285   -1.777880
     13          9           0        0.615294   -2.154049    1.471074
     14          8           0        0.340355   -2.383824   -0.956209
     15          1           0       -2.822660   -1.037568    1.125297
     16          1           0       -3.755031    1.270417    1.121288
     17          1           0       -2.391935    3.147707    0.222578
     18          1           0       -0.106864    2.705019   -0.659390
     19          1           0        3.179071   -1.135249   -1.447318
     20          1           0        3.860708    0.292154   -0.613921
     21          1           0        3.723188   -1.272975    0.254902
 ---------------------------------------------------------------------
                    Distance matrix (angstroms):
                    1          2          3          4          5
     1  O    0.000000
     2  S    1.444998   0.000000
     3  C    2.629648   1.775389   0.000000
     4  C    2.861632   2.694544   1.392357   0.000000
     5  C    4.245587   4.004583   2.406008   1.392583   0.000000
     6  C    5.147839   4.544029   2.773551   2.411011   1.392377
     7  C    5.017275   4.063709   2.401146   2.786277   2.413457
     8  C    3.932464   2.792250   1.402183   2.434891   2.805474
     9  C    4.611569   3.222738   2.567275   3.834749   4.297424
    10  O    4.432692   3.008939   2.929028   4.271109   4.978723
    11  C    5.451443   4.048145   4.287588   5.658252   6.379601
    12  O    5.604385   4.237778   3.575709   4.750139   5.026551
    13  F    2.422375   1.600180   2.605153   3.523879   4.729705
    14  O    2.523975   1.444237   2.650309   3.785750   4.952937
    15  H    2.381451   2.783628   2.145549   1.085260   2.161927
    16  H    4.819247   4.841692   3.389962   2.148686   1.086448
    17  H    6.195503   5.630192   3.860303   3.397086   2.153918
    18  H    5.992363   4.922916   3.380009   3.871949   3.402937
    19  H    5.458902   4.094536   4.528084   5.919102   6.703383
    20  H    6.413371   4.985963   4.939664   6.265906   6.796929
    21  H    5.519375   4.224724   4.740266   6.071968   6.908797
                    6          7          8          9         10
     6  C    0.000000
     7  C    1.392614   0.000000
     8  C    2.422800   1.393725   0.000000
     9  C    3.759336   2.460377   1.494278   0.000000
    10  O    4.659101   3.478638   2.333575   1.331574   0.000000
    11  C    5.981637   4.711773   3.654603   2.333260   1.428051
    12  O    4.264996   2.903767   2.381366   1.208577   2.259400
    13  F    5.167565   4.594465   3.334291   3.495405   2.713709
    14  O    5.227125   4.466752   3.132525   2.983504   2.815633
    15  H    3.401207   3.871160   3.410964   4.709430   4.975122
    16  H    2.156482   3.400332   3.891918   5.383650   6.042131
    17  H    1.086769   2.149729   3.403031   4.610087   5.569798
    18  H    2.161357   1.085966   2.134720   2.609858   3.722072
    19  H    6.346184   5.073927   3.966311   2.615983   2.071466
    20  H    6.191823   4.853956   4.051345   2.649921   2.079496
    21  H    6.651499   5.469436   4.342226   3.211701   2.013613
                   11         12         13         14         15
    11  C    0.000000
    12  O    2.669359   0.000000
    13  F    3.639717   4.639645   0.000000
    14  O    3.452167   3.710309   2.453588   0.000000
    15  H    6.317021   5.668137   3.631201   4.018673   0.000000
    16  H    7.450969   6.089619   5.563188   5.868702   2.489202
    17  H    6.837668   4.945397   6.221799   6.281145   4.303133
    18  H    4.741527   2.648697   5.354525   5.117073   4.956573
    19  H    1.092349   2.688027   4.015958   3.139814   6.530594
    20  H    1.092809   2.647475   4.567694   4.435190   7.032812
    21  H    1.089256   3.725523   3.451720   3.760895   6.607656
                   16         17         18         19         20
    16  H    0.000000
    17  H    2.487957   0.000000
    18  H    4.305580   2.489054   0.000000
    19  H    7.776036   7.222768   5.115258   0.000000
    20  H    7.871940   6.924555   4.643880   1.787921   0.000000
    21  H    7.946271   7.545740   5.597291   1.792368   1.795381
                   21
    21  H    0.000000
 Stoichiometry    C8H7FO4S
 Framework group  C1[X(C8H7FO4S)]
 Deg. of freedom    57
 Full point group                 C1      NOp   1
 Largest Abelian subgroup         C1      NOp   1
 Largest concise Abelian subgroup C1      NOp   1
                         Standard orientation:                         
 ---------------------------------------------------------------------
 Center     Atomic      Atomic             Coordinates (Angstroms)
 Number     Number       Type             X           Y           Z
 ---------------------------------------------------------------------
      1          8           0       -0.484173    2.870782    0.341169
      2         16           0        0.257114    1.635757    0.226163
      3          6           0       -0.883104    0.294860   -0.006011
      4          6           0       -2.226196    0.646227   -0.112315
      5          6           0       -3.191209   -0.352965   -0.210579
      6          6           0       -2.810762   -1.691943   -0.177260
      7          6           0       -1.466914   -2.033842   -0.048613
      8          6           0       -0.483540   -1.048857    0.023828
      9          6           0        0.928329   -1.515812    0.170275
     10          8           0        1.746395   -0.834718   -0.629706
     11          6           0        3.136354   -1.122562   -0.473217
     12          8           0        1.251518   -2.429471    0.892380
     13          9           0        0.953002    1.693878   -1.213608
     14          8           0        1.276689    1.269493    1.181223
     15          1           0       -2.505763    1.694851   -0.107911
     16          1           0       -4.239413   -0.081156   -0.298653
     17          1           0       -3.562276   -2.474475   -0.240014
     18          1           0       -1.158723   -3.073881    0.002957
     19          1           0        3.444899   -0.912991    0.553480
     20          1           0        3.339228   -2.168871   -0.714691
     21          1           0        3.650026   -0.459815   -1.168478
 ---------------------------------------------------------------------
 Rotational constants (GHZ):           0.7731897           0.7011515           0.4156907
 Standard basis: 6-31G(d) (6D, 7F)
 There are   228 symmetry adapted cartesian basis functions of A   symmetry.
 There are   228 symmetry adapted basis functions of A   symmetry.
   228 basis functions,   444 primitive gaussians,   228 cartesian basis functions
    56 alpha electrons       56 beta electrons
       nuclear repulsion energy      1089.8706421657 Hartrees.
 NAtoms=   21 NActive=   21 NUniq=   21 SFac= 1.00D+00 NAtFMM=   60 NAOKFM=F Big=F
 Integral buffers will be    131072 words long.
 Raffenetti 2 integral format.
 Two-electron integral symmetry is turned on.
 R6APFD:  NTU= -4 IXU= 1 FactS= 1.050
 Nuclear repulsion after empirical dispersion term =     1089.8472195405 Hartrees.
 One-electron integrals computed using PRISM.
 NBasis=   228 RedAO= T EigKep=  4.33D-04  NBF=   228
 NBsUse=   228 1.00D-06 EigRej= -1.00D+00 NBFU=   228
 Initial guess from the checkpoint file:  "LLQSKDZICCVCEB-UHFFFAOYSA-N_conf_0_0.chk"
 B after Tr=     0.000000    0.000000   -0.000000
         Rot=    0.999280   -0.005293   -0.007158   -0.036873 Ang=  -4.35 deg.
 ExpMin= 1.17D-01 ExpMax= 2.19D+04 ExpMxC= 3.30D+03 IAcc=2 IRadAn=         4 AccDes= 0.00D+00
 Harris functional with IExCor= 3731 and IRadAn=       4 diagonalized for initial guess.
 HarFok:  IExCor= 3731 AccDes= 0.00D+00 IRadAn=         4 IDoV= 1 UseB2=F ITyADJ=14
 ICtDFT=  3500011 ScaDFX=  1.000000  1.000000  1.000000  1.000000
 FoFCou: FMM=F IPFlag=           0 FMFlag=      100000 FMFlg1=           0
         NFxFlg=           0 DoJE=T BraDBF=F KetDBF=T FulRan=T
         wScrn=  0.000000 ICntrl=       500 IOpCl=  0 I1Cent=   200000004 NGrid=           0
         NMat0=    1 NMatS0=      1 NMatT0=    0 NMatD0=    1 NMtDS0=    0 NMtDT0=    0
 Petite list used in FoFCou.
 Keep R1 ints in memory in canonical form, NReq=346780514.
 Requested convergence on RMS density matrix=1.00D-08 within  32 cycles.
 Requested convergence on MAX density matrix=1.00D-06.
 Requested convergence on             energy=1.00D-06.
 No special actions if energy rises.
 Integral accuracy reduced to 1.0D-05 until final iterations.
 Initial convergence to 1.0D-05 achieved.  Increase integral accuracy.
 SCF Done:  E(RAPFD) =  -1107.28894893     A.U. after   13 cycles
            NFock= 13  Conv=0.79D-08     -V/T= 2.0066
 QCSCF skips out because SCF is already converged.
 R6APFD:  NTU= -4 IXU= 1 FactS= 1.050
 Calling FoFJK, ICntrl=      2127 FMM=F ISym2X=0 I1Cent= 0 IOpClX= 0 NMat=1 NMatS=1 NMatT=0.
 ***** Axes restored to original set *****
 -------------------------------------------------------------------
 Center     Atomic                   Forces (Hartrees/Bohr)
 Number     Number              X              Y              Z
 -------------------------------------------------------------------
      1        8          -0.000153175   -0.000407975   -0.000099626
      2       16          -0.001866346   -0.000965477   -0.001883668
      3        6           0.000947797    0.001303078    0.001237408
      4        6          -0.000529319   -0.000036932    0.000833332
      5        6           0.000165177    0.000198349   -0.000151126
      6        6          -0.000009393   -0.000085613   -0.000004669
      7        6          -0.000651472    0.000224842   -0.000540330
      8        6          -0.001207697    0.000435049   -0.000776252
      9        6          -0.000178553    0.000520008   -0.000276078
     10        8           0.000857962   -0.000177526    0.000814736
     11        6           0.000475847   -0.001032500    0.000230580
     12        8           0.000304215    0.000955048   -0.000168187
     13        9           0.000923275   -0.000453796    0.000928546
     14        8           0.000858995   -0.000478883    0.000516704
     15        1           0.000131064   -0.000027068   -0.000149460
     16        1           0.000029086   -0.000071917    0.000044198
     17        1           0.000076422    0.000009205    0.000064128
     18        1           0.000148122   -0.000211298   -0.000201806
     19        1           0.000028843    0.000232286   -0.000135571
     20        1          -0.000187512    0.000047817   -0.000426293
     21        1          -0.000163337    0.000023305    0.000143433
 -------------------------------------------------------------------
 Cartesian Forces:  Max     0.001883668 RMS     0.000620165

 GradGradGradGradGradGradGradGradGradGradGradGradGradGradGradGradGradGrad
 Berny optimization.
 Using GEDIIS/GDIIS optimizer.
 FormGI is forming the generalized inverse of G from B-inverse, IUseBI=4.
 Internal  Forces:  Max     0.002144461 RMS     0.000520490
 Search for a local minimum.
 Step number   2 out of a maximum of  104
 All quantities printed in internal units (Hartrees-Bohrs-Radians)
 Mixed Optimization -- En-DIIS/RFO-DIIS
 Update second derivatives using D2CorX and points    1    2
 DE= -5.77D-03 DEPred=-6.02D-03 R= 9.59D-01
 TightC=F SS=  1.41D+00  RLast= 3.51D-01 DXNew= 5.0454D-01 1.0535D+00
 Trust test= 9.59D-01 RLast= 3.51D-01 DXMaxT set to 5.05D-01
 ITU=  1  0
 Use linear search instead of GDIIS.
     Eigenvalues ---    0.00198   0.00411   0.00803   0.01423   0.01678
     Eigenvalues ---    0.01757   0.01856   0.02202   0.02428   0.02567
     Eigenvalues ---    0.02649   0.02744   0.03214   0.06553   0.08530
     Eigenvalues ---    0.08963   0.11361   0.11804   0.12447   0.12526
     Eigenvalues ---    0.12860   0.14016   0.15519   0.16387   0.16982
     Eigenvalues ---    0.17121   0.18118   0.18131   0.18668   0.19203
     Eigenvalues ---    0.19858   0.22628   0.23915   0.24794   0.25106
     Eigenvalues ---    0.27881   0.31969   0.34114   0.34299   0.35054
     Eigenvalues ---    0.35181   0.36162   0.36320   0.36396   0.36465
     Eigenvalues ---    0.36537   0.38449   0.41265   0.43481   0.46817
     Eigenvalues ---    0.47001   0.47830   0.51064   0.66789   0.67575
     Eigenvalues ---    0.70760   0.84147
 RFO step:  Lambda=-4.68869115D-04 EMin= 1.97540578D-03
 Quartic linear search produced a step of  0.05783.
 Iteration  1 RMS(Cart)=  0.04698914 RMS(Int)=  0.00084190
 Iteration  2 RMS(Cart)=  0.00272657 RMS(Int)=  0.00005308
 Iteration  3 RMS(Cart)=  0.00000377 RMS(Int)=  0.00005306
 Iteration  4 RMS(Cart)=  0.00000000 RMS(Int)=  0.00005306
 Variable       Old X    -DE/DX   Delta X   Delta X   Delta X     New X
                                 (Linear)    (Quad)   (Total)
    R1        2.73065   0.00033  -0.00061   0.00137   0.00076   2.73141
    R2        3.35500   0.00214   0.00060   0.01135   0.01194   3.36694
    R3        3.02390   0.00131   0.00112   0.00431   0.00544   3.02934
    R4        2.72921   0.00010  -0.00044   0.00023  -0.00021   2.72900
    R5        2.63117   0.00052  -0.00123   0.00213   0.00091   2.63209
    R6        2.64974   0.00099   0.00036   0.00167   0.00206   2.65180
    R7        2.63160   0.00006  -0.00035   0.00129   0.00093   2.63253
    R8        2.05084  -0.00010  -0.00044   0.00007  -0.00037   2.05047
    R9        2.63121  -0.00011  -0.00010  -0.00053  -0.00066   2.63055
   R10        2.05309  -0.00002  -0.00021   0.00023   0.00002   2.05311
   R11        2.63166  -0.00018  -0.00034  -0.00013  -0.00050   2.63116
   R12        2.05370  -0.00002  -0.00015   0.00005  -0.00010   2.05360
   R13        2.63376   0.00011  -0.00110   0.00146   0.00038   2.63413
   R14        2.05218   0.00000  -0.00039   0.00031  -0.00008   2.05210
   R15        2.82378   0.00092   0.00198  -0.00190   0.00009   2.82387
   R16        2.51631   0.00146  -0.00227   0.00568   0.00342   2.51973
   R17        2.28388   0.00067  -0.00102   0.00251   0.00149   2.28537
   R18        2.69863   0.00037  -0.00016   0.00022   0.00005   2.69868
   R19        2.06424   0.00001  -0.00025   0.00071   0.00047   2.06471
   R20        2.06511  -0.00001  -0.00017  -0.00021  -0.00038   2.06473
   R21        2.05840   0.00002  -0.00046   0.00016  -0.00030   2.05810
    A1        1.90335   0.00022   0.00110  -0.00496  -0.00392   1.89944
    A2        1.83761  -0.00042   0.00047  -0.00277  -0.00231   1.83530
    A3        2.12502  -0.00052   0.00079  -0.00251  -0.00181   2.12321
    A4        1.76101   0.00069  -0.00654   0.01519   0.00864   1.76964
    A5        1.92659   0.00123   0.00211   0.00223   0.00428   1.93087
    A6        1.87256  -0.00112   0.00060  -0.00373  -0.00313   1.86943
    A7        2.02517  -0.00112  -0.00268  -0.00504  -0.00792   2.01725
    A8        2.13884   0.00159   0.00141   0.00597   0.00715   2.14599
    A9        2.11570  -0.00049   0.00119  -0.00352  -0.00241   2.11328
   A10        2.08606   0.00012  -0.00055   0.00131   0.00079   2.08685
   A11        2.08520  -0.00021  -0.00160   0.00078  -0.00086   2.08434
   A12        2.11188   0.00008   0.00216  -0.00217  -0.00004   2.11184
   A13        2.09320   0.00017  -0.00014   0.00111   0.00095   2.09415
   A14        2.08838  -0.00016  -0.00034  -0.00115  -0.00149   2.08690
   A15        2.10150  -0.00001   0.00048  -0.00004   0.00045   2.10195
   A16        2.09667   0.00000   0.00013  -0.00143  -0.00133   2.09535
   A17        2.09684   0.00004   0.00010   0.00072   0.00083   2.09766
   A18        2.08961  -0.00004  -0.00024   0.00076   0.00054   2.09015
   A19        2.10849   0.00018   0.00039   0.00065   0.00104   2.10953
   A20        2.10990   0.00020   0.00149   0.00302   0.00450   2.11440
   A21        2.06478  -0.00038  -0.00188  -0.00363  -0.00552   2.05925
   A22        2.06587   0.00002  -0.00103   0.00165   0.00060   2.06647
   A23        2.17827   0.00060   0.00049   0.00183   0.00219   2.18046
   A24        2.03858  -0.00062   0.00052  -0.00276  -0.00236   2.03621
   A25        1.94095   0.00011   0.00241  -0.00563  -0.00325   1.93770
   A26        2.15012  -0.00020  -0.00053   0.00455   0.00399   2.15411
   A27        2.19118   0.00009  -0.00169   0.00099  -0.00072   2.19046
   A28        2.01423   0.00069   0.00177   0.00140   0.00317   2.01739
   A29        1.91692  -0.00001  -0.00076  -0.00293  -0.00370   1.91321
   A30        1.92780  -0.00007   0.00009   0.00150   0.00158   1.92938
   A31        1.84047  -0.00017  -0.00256   0.00145  -0.00112   1.83935
   A32        1.91659  -0.00031  -0.00102  -0.00163  -0.00266   1.91392
   A33        1.92836   0.00024   0.00206  -0.00076   0.00128   1.92965
   A34        1.93260   0.00033   0.00221   0.00246   0.00466   1.93726
    D1        0.06066   0.00006   0.00210   0.01606   0.01813   0.07879
    D2       -2.99234   0.00037   0.00313   0.04914   0.05225  -2.94009
    D3       -1.86831   0.00015   0.00413   0.01410   0.01822  -1.85010
    D4        1.36187   0.00046   0.00516   0.04718   0.05234   1.41421
    D5        2.43863   0.00063   0.00578   0.01009   0.01590   2.45453
    D6       -0.61437   0.00094   0.00681   0.04317   0.05002  -0.56435
    D7       -3.07079   0.00022   0.00011   0.03617   0.03611  -3.03467
    D8        0.06081   0.00014   0.00042   0.02710   0.02737   0.08818
    D9       -0.01652   0.00004  -0.00089   0.00409   0.00322  -0.01330
   D10        3.11508  -0.00005  -0.00058  -0.00498  -0.00552   3.10956
   D11        3.04266  -0.00050  -0.00066  -0.04935  -0.05014   2.99252
   D12       -0.06479  -0.00048   0.00088  -0.07538  -0.07464  -0.13942
   D13       -0.00584  -0.00016   0.00057  -0.01455  -0.01396  -0.01979
   D14       -3.11328  -0.00013   0.00211  -0.04058  -0.03846   3.13145
   D15        0.02054   0.00007   0.00043   0.00896   0.00935   0.02990
   D16       -3.13624   0.00002   0.00048   0.00328   0.00376  -3.13248
   D17       -3.11090   0.00016   0.00015   0.01816   0.01824  -3.09266
   D18        0.01550   0.00010   0.00021   0.01248   0.01266   0.02815
   D19       -0.00229  -0.00005   0.00033  -0.01124  -0.01090  -0.01319
   D20        3.12700  -0.00003  -0.00002  -0.00667  -0.00667   3.12033
   D21       -3.12857   0.00001   0.00028  -0.00551  -0.00524  -3.13382
   D22        0.00072   0.00003  -0.00007  -0.00094  -0.00102  -0.00030
   D23       -0.02061  -0.00008  -0.00067   0.00049  -0.00016  -0.02077
   D24        3.11546  -0.00002  -0.00105   0.00865   0.00760   3.12305
   D25        3.13324  -0.00011  -0.00032  -0.00406  -0.00437   3.12887
   D26       -0.01388  -0.00004  -0.00071   0.00410   0.00338  -0.01050
   D27        0.02440   0.00018   0.00020   0.01223   0.01242   0.03681
   D28        3.13458   0.00018  -0.00121   0.03626   0.03498  -3.11363
   D29       -3.11181   0.00012   0.00058   0.00426   0.00487  -3.10694
   D30       -0.00163   0.00012  -0.00083   0.02828   0.02743   0.02580
   D31       -0.79807   0.00036   0.00477   0.10328   0.10804  -0.69003
   D32        2.38761   0.00029   0.00202   0.10552   0.10750   2.49511
   D33        2.37719   0.00038   0.00630   0.07754   0.08387   2.46106
   D34       -0.72032   0.00031   0.00354   0.07978   0.08333  -0.63699
   D35        3.04480  -0.00087  -0.00662  -0.03754  -0.04415   3.00065
   D36       -0.14214  -0.00081  -0.00370  -0.03974  -0.04346  -0.18560
   D37       -1.02848   0.00007  -0.00018  -0.05058  -0.05076  -1.07924
   D38        1.08807  -0.00038  -0.00191  -0.05357  -0.05548   1.03259
   D39       -3.10643  -0.00012  -0.00073  -0.04900  -0.04974   3.12701
         Item               Value     Threshold  Converged?
 Maximum Force            0.002144     0.000450     NO 
 RMS     Force            0.000520     0.000300     NO 
 Maximum Displacement     0.203727     0.001800     NO 
 RMS     Displacement     0.046208     0.001200     NO 
 Predicted change in Energy=-2.834765D-04
 GradGradGradGradGradGradGradGradGradGradGradGradGradGradGradGradGradGrad

                          Input orientation:                          
 ---------------------------------------------------------------------
 Center     Atomic      Atomic             Coordinates (Angstroms)
 Number     Number       Type             X           Y           Z
 ---------------------------------------------------------------------
      1          8           0       -1.509412   -2.960189    0.616255
      2         16           0       -0.397214   -2.116940    0.240595
      3          6           0       -0.917108   -0.414219    0.310876
      4          6           0       -2.207061   -0.198570    0.789964
      5          6           0       -2.745587    1.085863    0.760334
      6          6           0       -2.008872    2.136881    0.221490
      7          6           0       -0.727740    1.908561   -0.273699
      8          6           0       -0.154743    0.639128   -0.216793
      9          6           0        1.238251    0.507957   -0.741550
     10          8           0        1.959641   -0.317368    0.017622
     11          6           0        3.249899   -0.655421   -0.492637
     12          8           0        1.648564    1.118093   -1.701730
     13          9           0        0.619779   -2.188838    1.477668
     14          8           0        0.371553   -2.365234   -0.956420
     15          1           0       -2.783779   -1.037836    1.164657
     16          1           0       -3.748580    1.255649    1.141872
     17          1           0       -2.433481    3.136294    0.178690
     18          1           0       -0.144095    2.711856   -0.713362
     19          1           0        3.142059   -1.175906   -1.447221
     20          1           0        3.855336    0.243596   -0.630487
     21          1           0        3.692589   -1.313356    0.253876
 ---------------------------------------------------------------------
                    Distance matrix (angstroms):
                    1          2          3          4          5
     1  O    0.000000
     2  S    1.445398   0.000000
     3  C    2.631738   1.781710   0.000000
     4  C    2.853668   2.693974   1.392841   0.000000
     5  C    4.233134   4.005363   2.407404   1.393075   0.000000
     6  C    5.136674   4.548934   2.776337   2.411799   1.392028
     7  C    5.010764   4.071658   2.402685   2.785637   2.412004
     8  C    3.934994   2.804265   1.403273   2.434606   2.804786
     9  C    4.628317   3.244909   2.569744   3.835999   4.296580
    10  O    4.401953   2.973708   2.893279   4.239342   4.965868
    11  C    5.403021   3.996886   4.250619   5.624250   6.367720
    12  O    5.654932   4.292234   3.602949   4.775771   5.036999
    13  F    2.422905   1.603058   2.621584   3.524929   4.750151
    14  O    2.522955   1.444124   2.659539   3.793881   4.957204
    15  H    2.370695   2.777417   2.145296   1.085064   2.162183
    16  H    4.802440   4.839247   3.390611   2.148226   1.086459
    17  H    6.181624   5.634420   3.863030   3.397976   2.154063
    18  H    5.983650   4.928628   3.379195   3.871227   3.403439
    19  H    5.392382   4.032458   4.488643   5.879903   6.682311
    20  H    6.371744   4.941163   4.908677   6.242263   6.798234
    21  H    5.468473   4.168023   4.696915   6.027936   6.889330
                    6          7          8          9         10
     6  C    0.000000
     7  C    1.392351   0.000000
     8  C    2.423458   1.393924   0.000000
     9  C    3.758277   2.458800   1.494325   0.000000
    10  O    4.670545   3.501663   2.332478   1.333382   0.000000
    11  C    5.996799   4.737462   3.652881   2.337121   1.428080
    12  O    4.256000   2.882869   2.384609   1.209367   2.261302
    13  F    5.215327   4.655295   3.386514   3.546849   2.725686
    14  O    5.227134   4.465409   3.138507   3.008747   2.768490
    15  H    3.401305   3.870067   3.410636   4.711669   4.933030
    16  H    2.156446   3.399355   3.891238   5.382825   6.026782
    17  H    1.086716   2.149776   3.403659   4.608320   5.590460
    18  H    2.163778   1.085923   2.131407   2.601701   3.759819
    19  H    6.347538   5.085905   3.959445   2.637774   2.069050
    20  H    6.220878   4.889171   4.050719   2.632747   2.080478
    21  H    6.664221   5.495307   4.340011   3.214317   2.012690
                   11         12         13         14         15
    11  C    0.000000
    12  O    2.677971   0.000000
    13  F    3.626431   4.701358   0.000000
    14  O    3.379857   3.784153   2.453062   0.000000
    15  H    6.268822   5.701742   3.606520   4.027042   0.000000
    16  H    7.436566   6.101980   5.573133   5.872744   2.488259
    17  H    6.865027   4.926683   6.274295   6.278814   4.303278
    18  H    4.786070   2.594336   5.422262   5.108993   4.955308
    19  H    1.092595   2.749133   3.992857   3.054684   6.477385
    20  H    1.092606   2.604256   4.563976   4.364513   6.995888
    21  H    1.089098   3.730198   3.421447   3.687892   6.545898
                   16         17         18         19         20
    16  H    0.000000
    17  H    2.488781   0.000000
    18  H    4.307522   2.493430   0.000000
    19  H    7.752211   7.233623   5.143155   0.000000
    20  H    7.873059   6.969340   4.700492   1.786283   0.000000
    21  H    7.922079   7.571907   5.644292   1.793239   1.797966
                   21
    21  H    0.000000
 Stoichiometry    C8H7FO4S
 Framework group  C1[X(C8H7FO4S)]
 Deg. of freedom    57
 Full point group                 C1      NOp   1
 Largest Abelian subgroup         C1      NOp   1
 Largest concise Abelian subgroup C1      NOp   1
                         Standard orientation:                         
 ---------------------------------------------------------------------
 Center     Atomic      Atomic             Coordinates (Angstroms)
 Number     Number       Type             X           Y           Z
 ---------------------------------------------------------------------
      1          8           0       -0.368995    2.875624    0.377802
      2         16           0        0.331385    1.619531    0.233324
      3          6           0       -0.861842    0.322643   -0.028932
      4          6           0       -2.186045    0.738406   -0.145697
      5          6           0       -3.200857   -0.212766   -0.223719
      6          6           0       -2.891482   -1.567916   -0.148909
      7          6           0       -1.566798   -1.974234   -0.011941
      8          6           0       -0.532737   -1.040325    0.027498
      9          6           0        0.855670   -1.581375    0.139737
     10          8           0        1.704821   -0.879178   -0.611108
     11          6           0        3.086702   -1.196416   -0.440297
     12          8           0        1.138912   -2.558693    0.793336
     13          9           0        1.036985    1.696045   -1.204059
     14          8           0        1.338760    1.200409    1.179383
     15          1           0       -2.412596    1.799498   -0.156837
[...]
    18  H   -0.000001   0.000001   0.000000
    19  H    0.492850  -0.036360  -0.021921
    20  H   -0.036360   0.522029  -0.025930
    21  H   -0.021921  -0.025930   0.460118
 Mulliken charges:
               1
     1  O   -0.494758
     2  S    1.287469
     3  C   -0.289929
     4  C   -0.170190
     5  C   -0.175317
     6  C   -0.183334
     7  C   -0.173312
     8  C    0.024672
     9  C    0.578265
    10  O   -0.395427
    11  C   -0.318698
    12  O   -0.269828
    13  F   -0.311516
    14  O   -0.522295
    15  H    0.225160
    16  H    0.176158
    17  H    0.175357
    18  H    0.185968
    19  H    0.223701
    20  H    0.201551
    21  H    0.226303
 Sum of Mulliken charges =  -0.00000
 Mulliken charges with hydrogens summed into heavy atoms:
               1
     1  O   -0.494758
     2  S    1.287469
     3  C   -0.289929
     4  C    0.054971
     5  C    0.000841
     6  C   -0.007977
     7  C    0.012656
     8  C    0.024672
     9  C    0.578265
    10  O   -0.395427
    11  C    0.332856
    12  O   -0.269828
    13  F   -0.311516
    14  O   -0.522295
 Electronic spatial extent (au):  <R**2>=           2671.8718
 Charge=             -0.0000 electrons
 Dipole moment (field-independent basis, Debye):
    X=              1.2417    Y=             -4.9517    Z=             -1.5350  Tot=              5.3308
 Quadrupole moment (field-independent basis, Debye-Ang):
   XX=            -67.8034   YY=            -88.3274   ZZ=            -89.6995
   XY=             -4.6429   XZ=             -2.6261   YZ=             -0.9572
 Traceless Quadrupole moment (field-independent basis, Debye-Ang):
   XX=             14.1400   YY=             -6.3839   ZZ=             -7.7561
   XY=             -4.6429   XZ=             -2.6261   YZ=             -0.9572
 Octapole moment (field-independent basis, Debye-Ang**2):
  XXX=             43.2701  YYY=            -21.0194  ZZZ=             -3.8139  XYY=              7.4601
  XXY=            -12.4870  XXZ=            -13.2476  XZZ=             14.8018  YZZ=              5.5842
  YYZ=             -9.6077  XYZ=              1.7594
 Hexadecapole moment (field-independent basis, Debye-Ang**3):
 XXXX=          -1468.7254 YYYY=          -1424.7980 ZZZZ=           -230.0673 XXXY=            -48.5063
 XXXZ=            -19.4395 YYYX=             19.1793 YYYZ=            -13.3889 ZZZX=            -15.2546
 ZZZY=            -14.6322 XXYY=           -470.8728 XXZZ=           -340.7599 YYZZ=           -279.4692
 XXYZ=             -1.0077 YYXZ=             -9.6797 ZZXY=            -11.9304
 N-N= 1.088881036459D+03 E-N=-4.783715010730D+03  KE= 1.100150258141D+03
 Evaluate density.
 Using the total density.
 Monte-Carlo method of calculating molar volume:
 based on  0.001 e/bohr**3 density envelope.
 Number of points per bohr**3 =   20 CutOff= 1.00D-04
 Using the CI density.
 There are       421 points.  Will hold       421 in memory.
 LenV=   805156484 MDV=   805306368.
 Box volume = 9358.623 fraction occupied=0.185
 Integrated density= 8.0460824737115090D+01 error=-3.1539175262884910D+01
 Molar volume = 1733.902 bohr**3/mol (154.732 cm**3/mol)
 Recommended a0 for SCRF calculation =  4.84 angstrom (  9.15 bohr)
 ******************************Gaussian NBO Version 3.1******************************
             N A T U R A L   A T O M I C   O R B I T A L   A N D
          N A T U R A L   B O N D   O R B I T A L   A N A L Y S I S
 ******************************Gaussian NBO Version 3.1******************************
       /RESON  / : Allow strongly delocalized NBO set

 Analyzing the CI density

 Job title: LLQSKDZICCVCEB-UHFFFAOYSA-N_conf_0                              

 Storage needed:    157524 in NPA ( 805303953 available)


 NATURAL POPULATIONS:  Natural atomic orbital occupancies 
                                                          
   NAO  Atom  No  lang   Type(AO)    Occupancy
 --------------------------------------------
     1    O    1  S      Cor( 1S)     1.99988
     2    O    1  S      Val( 2S)     1.82508
     3    O    1  S      Ryd( 3S)     0.00105
     4    O    1  S      Ryd( 4S)     0.00014
     5    O    1  px     Val( 2p)     1.71003
     6    O    1  px     Ryd( 3p)     0.00094
     7    O    1  py     Val( 2p)     1.59327
     8    O    1  py     Ryd( 3p)     0.00063
     9    O    1  pz     Val( 2p)     1.76489
    10    O    1  pz     Ryd( 3p)     0.00050
    11    O    1  dxy    Ryd( 3d)     0.00579
    12    O    1  dxz    Ryd( 3d)     0.00136
    13    O    1  dyz    Ryd( 3d)     0.00490
    14    O    1  dx2y2  Ryd( 3d)     0.00589
    15    O    1  dz2    Ryd( 3d)     0.00217
 
    16    S    2  S      Cor( 1S)     2.00000
    17    S    2  S      Cor( 2S)     1.99905
    18    S    2  S      Val( 3S)     1.02628
    19    S    2  S      Ryd( 4S)     0.00524
    20    S    2  S      Ryd( 5S)     0.00037
    21    S    2  px     Cor( 2p)     1.99988
    22    S    2  px     Val( 3p)     0.78053
    23    S    2  px     Ryd( 4p)     0.01178
    24    S    2  py     Cor( 2p)     1.99991
    25    S    2  py     Val( 3p)     0.80058
    26    S    2  py     Ryd( 4p)     0.01149
    27    S    2  pz     Cor( 2p)     1.99987
    28    S    2  pz     Val( 3p)     0.75616
    29    S    2  pz     Ryd( 4p)     0.00885
    30    S    2  dxy    Ryd( 3d)     0.04061
    31    S    2  dxz    Ryd( 3d)     0.03132
    32    S    2  dyz    Ryd( 3d)     0.03059
    33    S    2  dx2y2  Ryd( 3d)     0.03117
    34    S    2  dz2    Ryd( 3d)     0.03422
 
    35    C    3  S      Cor( 1S)     1.99860
    36    C    3  S      Val( 2S)     0.95396
    37    C    3  S      Ryd( 3S)     0.00247
    38    C    3  S      Ryd( 4S)     0.00007
    39    C    3  px     Val( 2p)     1.11302
    40    C    3  px     Ryd( 3p)     0.00878
    41    C    3  py     Val( 2p)     1.09566
    42    C    3  py     Ryd( 3p)     0.00796
    43    C    3  pz     Val( 2p)     1.21556
    44    C    3  pz     Ryd( 3p)     0.00503
    45    C    3  dxy    Ryd( 3d)     0.00084
    46    C    3  dxz    Ryd( 3d)     0.00055
    47    C    3  dyz    Ryd( 3d)     0.00073
    48    C    3  dx2y2  Ryd( 3d)     0.00052
    49    C    3  dz2    Ryd( 3d)     0.00044
 
    50    C    4  S      Cor( 1S)     1.99902
    51    C    4  S      Val( 2S)     0.96278
    52    C    4  S      Ryd( 3S)     0.00107
    53    C    4  S      Ryd( 4S)     0.00005
    54    C    4  px     Val( 2p)     1.05474
    55    C    4  px     Ryd( 3p)     0.00469
    56    C    4  py     Val( 2p)     1.22158
    57    C    4  py     Ryd( 3p)     0.00646
    58    C    4  pz     Val( 2p)     0.93545
    59    C    4  pz     Ryd( 3p)     0.00115
    60    C    4  dxy    Ryd( 3d)     0.00056
    61    C    4  dxz    Ryd( 3d)     0.00089
    62    C    4  dyz    Ryd( 3d)     0.00041
    63    C    4  dx2y2  Ryd( 3d)     0.00084
    64    C    4  dz2    Ryd( 3d)     0.00047
 
    65    C    5  S      Cor( 1S)     1.99910
    66    C    5  S      Val( 2S)     0.96087
    67    C    5  S      Ryd( 3S)     0.00065
    68    C    5  S      Ryd( 4S)     0.00003
    69    C    5  px     Val( 2p)     1.18782
    70    C    5  px     Ryd( 3p)     0.00525
    71    C    5  py     Val( 2p)     1.06767
    72    C    5  py     Ryd( 3p)     0.00469
    73    C    5  pz     Val( 2p)     1.03784
    74    C    5  pz     Ryd( 3p)     0.00235
    75    C    5  dxy    Ryd( 3d)     0.00065
    76    C    5  dxz    Ryd( 3d)     0.00040
    77    C    5  dyz    Ryd( 3d)     0.00054
    78    C    5  dx2y2  Ryd( 3d)     0.00073
    79    C    5  dz2    Ryd( 3d)     0.00044
 
    80    C    6  S      Cor( 1S)     1.99911
    81    C    6  S      Val( 2S)     0.96149
    82    C    6  S      Ryd( 3S)     0.00069
    83    C    6  S      Ryd( 4S)     0.00003
    84    C    6  px     Val( 2p)     1.12745
    85    C    6  px     Ryd( 3p)     0.00494
    86    C    6  py     Val( 2p)     1.13349
    87    C    6  py     Ryd( 3p)     0.00507
    88    C    6  pz     Val( 2p)     1.02357
    89    C    6  pz     Ryd( 3p)     0.00178
    90    C    6  dxy    Ryd( 3d)     0.00081
    91    C    6  dxz    Ryd( 3d)     0.00047
    92    C    6  dyz    Ryd( 3d)     0.00054
    93    C    6  dx2y2  Ryd( 3d)     0.00057
    94    C    6  dz2    Ryd( 3d)     0.00044
 
    95    C    7  S      Cor( 1S)     1.99905
    96    C    7  S      Val( 2S)     0.95366
    97    C    7  S      Ryd( 3S)     0.00074
    98    C    7  S      Ryd( 4S)     0.00004
    99    C    7  px     Val( 2p)     1.06798
   100    C    7  px     Ryd( 3p)     0.00377
   101    C    7  py     Val( 2p)     1.18745
   102    C    7  py     Ryd( 3p)     0.00523
   103    C    7  pz     Val( 2p)     0.97357
   104    C    7  pz     Ryd( 3p)     0.00118
   105    C    7  dxy    Ryd( 3d)     0.00069
   106    C    7  dxz    Ryd( 3d)     0.00091
   107    C    7  dyz    Ryd( 3d)     0.00033
   108    C    7  dx2y2  Ryd( 3d)     0.00067
   109    C    7  dz2    Ryd( 3d)     0.00045
 
   110    C    8  S      Cor( 1S)     1.99878
   111    C    8  S      Val( 2S)     0.87764
   112    C    8  S      Ryd( 3S)     0.00074
   113    C    8  S      Ryd( 4S)     0.00007
   114    C    8  px     Val( 2p)     1.03963
   115    C    8  px     Ryd( 3p)     0.00657
   116    C    8  py     Val( 2p)     1.10575
   117    C    8  py     Ryd( 3p)     0.00500
   118    C    8  pz     Val( 2p)     1.16071
   119    C    8  pz     Ryd( 3p)     0.00474
   120    C    8  dxy    Ryd( 3d)     0.00070
   121    C    8  dxz    Ryd( 3d)     0.00052
   122    C    8  dyz    Ryd( 3d)     0.00075
   123    C    8  dx2y2  Ryd( 3d)     0.00072
   124    C    8  dz2    Ryd( 3d)     0.00044
 
   125    C    9  S      Cor( 1S)     1.99933
   126    C    9  S      Val( 2S)     0.76620
   127    C    9  S      Ryd( 3S)     0.00437
   128    C    9  S      Ryd( 4S)     0.00046
   129    C    9  px     Val( 2p)     0.89375
   130    C    9  px     Ryd( 3p)     0.00414
   131    C    9  py     Val( 2p)     0.75505
   132    C    9  py     Ryd( 3p)     0.01377
   133    C    9  pz     Val( 2p)     0.79813
   134    C    9  pz     Ryd( 3p)     0.00749
   135    C    9  dxy    Ryd( 3d)     0.00192
   136    C    9  dxz    Ryd( 3d)     0.00242
   137    C    9  dyz    Ryd( 3d)     0.00137
   138    C    9  dx2y2  Ryd( 3d)     0.00205
   139    C    9  dz2    Ryd( 3d)     0.00254
 
   140    O   10  S      Cor( 1S)     1.99975
   141    O   10  S      Val( 2S)     1.61934
   142    O   10  S      Ryd( 3S)     0.00105
   143    O   10  S      Ryd( 4S)     0.00006
   144    O   10  px     Val( 2p)     1.41465
   145    O   10  px     Ryd( 3p)     0.00059
   146    O   10  py     Val( 2p)     1.73130
   147    O   10  py     Ryd( 3p)     0.00209
   148    O   10  pz     Val( 2p)     1.67896
   149    O   10  pz     Ryd( 3p)     0.00176
   150    O   10  dxy    Ryd( 3d)     0.00104
   151    O   10  dxz    Ryd( 3d)     0.00097
   152    O   10  dyz    Ryd( 3d)     0.00152
   153    O   10  dx2y2  Ryd( 3d)     0.00134
   154    O   10  dz2    Ryd( 3d)     0.00192
 
   155    C   11  S      Cor( 1S)     1.99942
   156    C   11  S      Val( 2S)     1.12282
   157    C   11  S      Ryd( 3S)     0.00149
   158    C   11  S      Ryd( 4S)     0.00003
   159    C   11  px     Val( 2p)     0.73376
   160    C   11  px     Ryd( 3p)     0.00314
   161    C   11  py     Val( 2p)     1.22792
   162    C   11  py     Ryd( 3p)     0.00235
   163    C   11  pz     Val( 2p)     1.25771
   164    C   11  pz     Ryd( 3p)     0.00193
   165    C   11  dxy    Ryd( 3d)     0.00125
   166    C   11  dxz    Ryd( 3d)     0.00130
   167    C   11  dyz    Ryd( 3d)     0.00059
   168    C   11  dx2y2  Ryd( 3d)     0.00182
   169    C   11  dz2    Ryd( 3d)     0.00124
 
   170    O   12  S      Cor( 1S)     1.99980
   171    O   12  S      Val( 2S)     1.71395
   172    O   12  S      Ryd( 3S)     0.00040
   173    O   12  S      Ryd( 4S)     0.00001
   174    O   12  px     Val( 2p)     1.22018
   175    O   12  px     Ryd( 3p)     0.00102
   176    O   12  py     Val( 2p)     1.64862
   177    O   12  py     Ryd( 3p)     0.00073
   178    O   12  pz     Val( 2p)     1.64800
   179    O   12  pz     Ryd( 3p)     0.00150
   180    O   12  dxy    Ryd( 3d)     0.00256
   181    O   12  dxz    Ryd( 3d)     0.00168
   182    O   12  dyz    Ryd( 3d)     0.00454
   183    O   12  dx2y2  Ryd( 3d)     0.00350
   184    O   12  dz2    Ryd( 3d)     0.00359
 
   185    F   13  S      Cor( 1S)     1.99997
   186    F   13  S      Val( 2S)     1.92537
   187    F   13  S      Ryd( 3S)     0.00249
   188    F   13  S      Ryd( 4S)     0.00013
   189    F   13  px     Val( 2p)     1.90130
   190    F   13  px     Ryd( 3p)     0.00014
   191    F   13  py     Val( 2p)     1.95110
   192    F   13  py     Ryd( 3p)     0.00019
   193    F   13  pz     Val( 2p)     1.71961
   194    F   13  pz     Ryd( 3p)     0.00041
   195    F   13  dxy    Ryd( 3d)     0.00039
   196    F   13  dxz    Ryd( 3d)     0.00180
   197    F   13  dyz    Ryd( 3d)     0.00163
   198    F   13  dx2y2  Ryd( 3d)     0.00043
   199    F   13  dz2    Ryd( 3d)     0.00214
 
   200    O   14  S      Cor( 1S)     1.99987
   201    O   14  S      Val( 2S)     1.82476
   202    O   14  S      Ryd( 3S)     0.00124
   203    O   14  S      Ryd( 4S)     0.00013
   204    O   14  px     Val( 2p)     1.66596
   205    O   14  px     Ryd( 3p)     0.00065
   206    O   14  py     Val( 2p)     1.77515
   207    O   14  py     Ryd( 3p)     0.00084
   208    O   14  pz     Val( 2p)     1.63683
   209    O   14  pz     Ryd( 3p)     0.00067
   210    O   14  dxy    Ryd( 3d)     0.00315
   211    O   14  dxz    Ryd( 3d)     0.00556
   212    O   14  dyz    Ryd( 3d)     0.00326
   213    O   14  dx2y2  Ryd( 3d)     0.00327
   214    O   14  dz2    Ryd( 3d)     0.00464
 
   215    H   15  S      Val( 1S)     0.71808
   216    H   15  S      Ryd( 2S)     0.00113
 
   217    H   16  S      Val( 1S)     0.74747
   218    H   16  S      Ryd( 2S)     0.00071
 
   219    H   17  S      Val( 1S)     0.74770
   220    H   17  S      Ryd( 2S)     0.00072
 
   221    H   18  S      Val( 1S)     0.74630
   222    H   18  S      Ryd( 2S)     0.00065
 
   223    H   19  S      Val( 1S)     0.75770
   224    H   19  S      Ryd( 2S)     0.00121
 
   225    H   20  S      Val( 1S)     0.77390
   226    H   20  S      Ryd( 2S)     0.00108
 
   227    H   21  S      Val( 1S)     0.74699
   228    H   21  S      Ryd( 2S)     0.00045

 WARNING:  1 low occupancy (<1.9990e) core orbital  found on  C    3
           1 low occupancy (<1.9990e) core orbital  found on  C    8


 Summary of Natural Population Analysis:                  
                                                          
                                       Natural Population 
                Natural  -----------------------------------------------
    Atom  No    Charge         Core      Valence    Rydberg      Total
 -----------------------------------------------------------------------
      O    1   -0.91652      1.99988     6.89326    0.02338     8.91652
      S    2    2.43210      9.99872     3.36355    0.20563    13.56790
      C    3   -0.40418      1.99860     4.37820    0.02737     6.40418
      C    4   -0.19014      1.99902     4.17454    0.01658     6.19014
      C    5   -0.26901      1.99910     4.25419    0.01572     6.26901
      C    6   -0.26043      1.99911     4.24600    0.01532     6.26043
      C    7   -0.19572      1.99905     4.18265    0.01402     6.19572
      C    8   -0.20275      1.99878     4.18372    0.02024     6.20275
      C    9    0.74701      1.99933     3.21313    0.04053     5.25299
      O   10   -0.45634      1.99975     6.44426    0.01233     8.45634
      C   11   -0.35678      1.99942     4.34221    0.01515     6.35678
      O   12   -0.25007      1.99980     6.23074    0.01952     8.25007
      F   13   -0.50712      1.99997     7.49738    0.00977     9.50712
      O   14   -0.92598      1.99987     6.90270    0.02341     8.92598
      H   15    0.28079      0.00000     0.71808    0.00113     0.71921
      H   16    0.25183      0.00000     0.74747    0.00071     0.74817
      H   17    0.25159      0.00000     0.74770    0.00072     0.74841
      H   18    0.25305      0.00000     0.74630    0.00065     0.74695
      H   19    0.24109      0.00000     0.75770    0.00121     0.75891
      H   20    0.22502      0.00000     0.77390    0.00108     0.77498
      H   21    0.25256      0.00000     0.74699    0.00045     0.74744
 =======================================================================
   * Total *   -0.00000     35.99041    75.54467    0.46492   112.00000

                                 Natural Population      
 --------------------------------------------------------
   Core                      35.99041 ( 99.9733% of  36)
   Valence                   75.54467 ( 99.4009% of  76)
   Natural Minimal Basis    111.53508 ( 99.5849% of 112)
   Natural Rydberg Basis      0.46492 (  0.4151% of 112)
 --------------------------------------------------------

    Atom  No          Natural Electron Configuration
 ----------------------------------------------------------------------------
      O    1      [core]2S( 1.83)2p( 5.07)3d( 0.02)
      S    2      [core]3S( 1.03)3p( 2.34)4S( 0.01)3d( 0.17)4p( 0.03)
      C    3      [core]2S( 0.95)2p( 3.42)3p( 0.02)
      C    4      [core]2S( 0.96)2p( 3.21)3p( 0.01)
      C    5      [core]2S( 0.96)2p( 3.29)3p( 0.01)
      C    6      [core]2S( 0.96)2p( 3.28)3p( 0.01)
      C    7      [core]2S( 0.95)2p( 3.23)3p( 0.01)
      C    8      [core]2S( 0.88)2p( 3.31)3p( 0.02)
      C    9      [core]2S( 0.77)2p( 2.45)3p( 0.03)3d( 0.01)
      O   10      [core]2S( 1.62)2p( 4.82)3d( 0.01)
      C   11      [core]2S( 1.12)2p( 3.22)3p( 0.01)3d( 0.01)
      O   12      [core]2S( 1.71)2p( 4.52)3d( 0.02)
      F   13      [core]2S( 1.93)2p( 5.57)3d( 0.01)
      O   14      [core]2S( 1.82)2p( 5.08)3d( 0.02)
      H   15            1S( 0.72)
      H   16            1S( 0.75)
      H   17            1S( 0.75)
      H   18            1S( 0.75)
      H   19            1S( 0.76)
      H   20            1S( 0.77)
      H   21            1S( 0.75)


 NBO analysis skipped by request.
 1\1\GINC-DELLA-R2C1N16\SP\RAPFD TD-FC\6-31G(d)\C8H7F1O4S1\SHIVAANI\28-
 Jan-2024\0\\# TD(NStates=10, Root=1) APFD/6-31G* volume pop=NPA densit
 y=current Geom=AllCheck Guess=Read\\LLQSKDZICCVCEB-UHFFFAOYSA-N_conf_0
 \\0,1\O,0,-1.5174901862,-2.9623608075,0.6135946833\S,0,-0.4044138076,-
 2.1223449384,0.2338802161\C,0,-0.9186965772,-0.4166541255,0.3059457956
 \C,0,-2.2070911387,-0.1989169291,0.7888255994\C,0,-2.7427650247,1.0867
 225014,0.7641141189\C,0,-2.0052008917,2.1377281844,0.2262902475\C,0,-0
 .7256308959,1.9084048164,-0.2724695914\C,0,-0.1559953514,0.637510947,-
 0.2210337808\C,0,1.2361079325,0.5034655766,-0.7487960976\O,0,1.9610745
 033,-0.311456915,0.0181464943\C,0,3.2541349902,-0.648475719,-0.4864417
 994\O,0,1.6423433797,1.1051647869,-1.7157687278\F,0,0.6155717692,-2.18
 97917555,1.4683603903\O,0,0.3616786299,-2.3756062937,-0.9637227058\H,0
 ,-2.7850656687,-1.0373635149,1.1633741656\H,0,-3.7443438129,1.25767175
 24,1.1488284356\H,0,-2.4278380996,3.1381531101,0.1876006009\H,0,-0.140
 9045086,2.711912387,-0.7104601856\H,0,3.1497136002,-1.1891533617,-1.43
 01051999\H,0,3.8513132973,0.2530742748,-0.6424637788\H,0,3.7034978606,
 -1.2876839767,0.2723011195\\Version=ES64L-G16RevA.03\State=1-A\HF=-110
 7.2892019\RMSD=8.941e-09\Dipole=1.2962311,1.6449787,-0.1118491\Quadrup
 ole=10.270489,-5.2700736,-5.0004154,-3.6219658,-2.6188652,-0.5247659\P
 G=C01 [X(C8H7F1O4S1)]\\@


0EVERYBODY IS IGNORANT, ONLY ON DIFFERENT SUBJECTS.
0          WILL ROGERS
 Job cpu time:       0 days  0 hours 22 minutes 32.2 seconds.
 Elapsed time:       0 days  0 hours  7 minutes 43.8 seconds.
 File lengths (MBytes):  RWF=    476 Int=      0 D2E=      0 Chk=    268 Scr=      1
 Normal termination of Gaussian 16 at Sun Jan 28 15:32:41 2024.
